+ 0.419851 0 2 exp 210 ------- 0 0.0 2.0 0 0
- 0.419851 0 2 exp 210 ------- 0 0.0 2.0 0 0
r 0.430019 0 2 exp 210 ------- 0 0.0 2.0 0 0
+ 0.446101 0 2 exp 210 ------- 0 0.0 2.0 1 1
- 0.446101 0 2 exp 210 ------- 0 0.0 2.0 1 1
r 0.456269 0 2 exp 210 ------- 0 0.0 2.0 1 1
+ 0.472351 0 2 exp 210 ------- 0 0.0 2.0 2 2
- 0.472351 0 2 exp 210 ------- 0 0.0 2.0 2 2
r 0.482519 0 2 exp 210 ------- 0 0.0 2.0 2 2
+ 0.498601 0 2 exp 210 ------- 0 0.0 2.0 3 3
- 0.498601 0 2 exp 210 ------- 0 0.0 2.0 3 3
r 0.508769 0 2 exp 210 ------- 0 0.0 2.0 3 3
+ 0.524851 0 2 exp 210 ------- 0 0.0 2.0 4 4
- 0.524851 0 2 exp 210 ------- 0 0.0 2.0 4 4
r 0.535019 0 2 exp 210 ------- 0 0.0 2.0 4 4
+ 0.551101 0 2 exp 210 ------- 0 0.0 2.0 5 5
- 0.551101 0 2 exp 210 ------- 0 0.0 2.0 5 5
r 0.561269 0 2 exp 210 ------- 0 0.0 2.0 5 5
+ 0.577351 0 2 exp 210 ------- 0 0.0 2.0 6 6
- 0.577351 0 2 exp 210 ------- 0 0.0 2.0 6 6
r 0.587519 0 2 exp 210 ------- 0 0.0 2.0 6 6
+ 0.603601 0 2 exp 210 ------- 0 0.0 2.0 7 7
- 0.603601 0 2 exp 210 ------- 0 0.0 2.0 7 7
r 0.613769 0 2 exp 210 ------- 0 0.0 2.0 7 7
+ 0.629851 0 2 exp 210 ------- 0 0.0 2.0 8 8
- 0.629851 0 2 exp 210 ------- 0 0.0 2.0 8 8
r 0.640019 0 2 exp 210 ------- 0 0.0 2.0 8 8
+ 0.656101 0 2 exp 210 ------- 0 0.0 2.0 9 9
- 0.656101 0 2 exp 210 ------- 0 0.0 2.0 9 9
r 0.666269 0 2 exp 210 ------- 0 0.0 2.0 9 9
+ 0.682351 0 2 exp 210 ------- 0 0.0 2.0 10 10
- 0.682351 0 2 exp 210 ------- 0 0.0 2.0 10 10
r 0.692519 0 2 exp 210 ------- 0 0.0 2.0 10 10
+ 0.708601 0 2 exp 210 ------- 0 0.0 2.0 11 11
- 0.708601 0 2 exp 210 ------- 0 0.0 2.0 11 11
r 0.718769 0 2 exp 210 ------- 0 0.0 2.0 11 11
+ 0.734851 0 2 exp 210 ------- 0 0.0 2.0 12 12
- 0.734851 0 2 exp 210 ------- 0 0.0 2.0 12 12
+ 0.73835 1 2 exp 210 ------- 0 1.0 2.0 0 13
- 0.73835 1 2 exp 210 ------- 0 1.0 2.0 0 13
r 0.745019 0 2 exp 210 ------- 0 0.0 2.0 12 12
r 0.748518 1 2 exp 210 ------- 0 1.0 2.0 0 13
+ 0.761101 0 2 exp 210 ------- 0 0.0 2.0 13 14
- 0.761101 0 2 exp 210 ------- 0 0.0 2.0 13 14
+ 0.7646 1 2 exp 210 ------- 0 1.0 2.0 1 15
- 0.7646 1 2 exp 210 ------- 0 1.0 2.0 1 15
r 0.771269 0 2 exp 210 ------- 0 0.0 2.0 13 14
r 0.774768 1 2 exp 210 ------- 0 1.0 2.0 1 15
+ 0.787351 0 2 exp 210 ------- 0 0.0 2.0 14 16
- 0.787351 0 2 exp 210 ------- 0 0.0 2.0 14 16
+ 0.79085 1 2 exp 210 ------- 0 1.0 2.0 2 17
- 0.79085 1 2 exp 210 ------- 0 1.0 2.0 2 17
r 0.797519 0 2 exp 210 ------- 0 0.0 2.0 14 16
r 0.801018 1 2 exp 210 ------- 0 1.0 2.0 2 17
+ 0.813601 0 2 exp 210 ------- 0 0.0 2.0 15 18
- 0.813601 0 2 exp 210 ------- 0 0.0 2.0 15 18
+ 0.8171 1 2 exp 210 ------- 0 1.0 2.0 3 19
- 0.8171 1 2 exp 210 ------- 0 1.0 2.0 3 19
r 0.823769 0 2 exp 210 ------- 0 0.0 2.0 15 18
r 0.827268 1 2 exp 210 ------- 0 1.0 2.0 3 19
+ 0.839851 0 2 exp 210 ------- 0 0.0 2.0 16 20
- 0.839851 0 2 exp 210 ------- 0 0.0 2.0 16 20
+ 0.84335 1 2 exp 210 ------- 0 1.0 2.0 4 21
- 0.84335 1 2 exp 210 ------- 0 1.0 2.0 4 21
r 0.850019 0 2 exp 210 ------- 0 0.0 2.0 16 20
r 0.853518 1 2 exp 210 ------- 0 1.0 2.0 4 21
+ 0.866101 0 2 exp 210 ------- 0 0.0 2.0 17 22
- 0.866101 0 2 exp 210 ------- 0 0.0 2.0 17 22
+ 0.8696 1 2 exp 210 ------- 0 1.0 2.0 5 23
- 0.8696 1 2 exp 210 ------- 0 1.0 2.0 5 23
r 0.876269 0 2 exp 210 ------- 0 0.0 2.0 17 22
r 0.879768 1 2 exp 210 ------- 0 1.0 2.0 5 23
+ 0.892351 0 2 exp 210 ------- 0 0.0 2.0 18 24
- 0.892351 0 2 exp 210 ------- 0 0.0 2.0 18 24
+ 0.89585 1 2 exp 210 ------- 0 1.0 2.0 6 25
- 0.89585 1 2 exp 210 ------- 0 1.0 2.0 6 25
r 0.902519 0 2 exp 210 ------- 0 0.0 2.0 18 24
r 0.906018 1 2 exp 210 ------- 0 1.0 2.0 6 25
+ 0.918601 0 2 exp 210 ------- 0 0.0 2.0 19 26
- 0.918601 0 2 exp 210 ------- 0 0.0 2.0 19 26
+ 0.9221 1 2 exp 210 ------- 0 1.0 2.0 7 27
- 0.9221 1 2 exp 210 ------- 0 1.0 2.0 7 27
r 0.928769 0 2 exp 210 ------- 0 0.0 2.0 19 26
r 0.932268 1 2 exp 210 ------- 0 1.0 2.0 7 27
+ 0.944851 0 2 exp 210 ------- 0 0.0 2.0 20 28
- 0.944851 0 2 exp 210 ------- 0 0.0 2.0 20 28
+ 0.94835 1 2 exp 210 ------- 0 1.0 2.0 8 29
- 0.94835 1 2 exp 210 ------- 0 1.0 2.0 8 29
r 0.955019 0 2 exp 210 ------- 0 0.0 2.0 20 28
r 0.958518 1 2 exp 210 ------- 0 1.0 2.0 8 29
+ 0.971101 0 2 exp 210 ------- 0 0.0 2.0 21 30
- 0.971101 0 2 exp 210 ------- 0 0.0 2.0 21 30
+ 0.9746 1 2 exp 210 ------- 0 1.0 2.0 9 31
- 0.9746 1 2 exp 210 ------- 0 1.0 2.0 9 31
r 0.981269 0 2 exp 210 ------- 0 0.0 2.0 21 30
r 0.984768 1 2 exp 210 ------- 0 1.0 2.0 9 31
+ 0.997351 0 2 exp 210 ------- 0 0.0 2.0 22 32
- 0.997351 0 2 exp 210 ------- 0 0.0 2.0 22 32
+ 1.00085 1 2 exp 210 ------- 0 1.0 2.0 10 33
- 1.00085 1 2 exp 210 ------- 0 1.0 2.0 10 33
r 1.007519 0 2 exp 210 ------- 0 0.0 2.0 22 32
r 1.011018 1 2 exp 210 ------- 0 1.0 2.0 10 33
+ 1.023601 0 2 exp 210 ------- 0 0.0 2.0 23 34
- 1.023601 0 2 exp 210 ------- 0 0.0 2.0 23 34
+ 1.0271 1 2 exp 210 ------- 0 1.0 2.0 11 35
- 1.0271 1 2 exp 210 ------- 0 1.0 2.0 11 35
r 1.033769 0 2 exp 210 ------- 0 0.0 2.0 23 34
r 1.037268 1 2 exp 210 ------- 0 1.0 2.0 11 35
+ 1.049851 0 2 exp 210 ------- 0 0.0 2.0 24 36
- 1.049851 0 2 exp 210 ------- 0 0.0 2.0 24 36
+ 1.05335 1 2 exp 210 ------- 0 1.0 2.0 12 37
- 1.05335 1 2 exp 210 ------- 0 1.0 2.0 12 37
r 1.060019 0 2 exp 210 ------- 0 0.0 2.0 24 36
r 1.063518 1 2 exp 210 ------- 0 1.0 2.0 12 37
+ 1.076101 0 2 exp 210 ------- 0 0.0 2.0 25 38
- 1.076101 0 2 exp 210 ------- 0 0.0 2.0 25 38
+ 1.0796 1 2 exp 210 ------- 0 1.0 2.0 13 39
- 1.0796 1 2 exp 210 ------- 0 1.0 2.0 13 39
r 1.086269 0 2 exp 210 ------- 0 0.0 2.0 25 38
r 1.089768 1 2 exp 210 ------- 0 1.0 2.0 13 39
