+ 0.1 0 1 tcp 40 ------- 0 0.1 3.1 0 0
- 0.1 0 1 tcp 40 ------- 0 0.1 3.1 0 0
r 0.115032 0 1 tcp 40 ------- 0 0.1 3.1 0 0
+ 0.115032 1 3 tcp 40 ------- 0 0.1 3.1 0 0
- 0.115032 1 3 tcp 40 ------- 0 0.1 3.1 0 0
r 0.130064 1 3 tcp 40 ------- 0 0.1 3.1 0 0
+ 0.130064 3 1 ack 40 ------- 0 3.1 0.1 0 1
- 0.130064 3 1 ack 40 ------- 0 3.1 0.1 0 1
r 0.145096 3 1 ack 40 ------- 0 3.1 0.1 0 1
+ 0.145096 1 0 ack 40 ------- 0 3.1 0.1 0 1
- 0.145096 1 0 ack 40 ------- 0 3.1 0.1 0 1
r 0.160128 1 0 ack 40 ------- 0 3.1 0.1 0 1
+ 0.160128 0 1 tcp 1040 ------- 0 0.1 3.1 1 2
- 0.160128 0 1 tcp 1040 ------- 0 0.1 3.1 1 2
r 0.17596 0 1 tcp 1040 ------- 0 0.1 3.1 1 2
+ 0.17596 1 3 tcp 1040 ------- 0 0.1 3.1 1 2
- 0.17596 1 3 tcp 1040 ------- 0 0.1 3.1 1 2
r 0.191792 1 3 tcp 1040 ------- 0 0.1 3.1 1 2
+ 0.191792 3 1 ack 40 ------- 0 3.1 0.1 1 3
- 0.191792 3 1 ack 40 ------- 0 3.1 0.1 1 3
r 0.206824 3 1 ack 40 ------- 0 3.1 0.1 1 3
+ 0.206824 1 0 ack 40 ------- 0 3.1 0.1 1 3
- 0.206824 1 0 ack 40 ------- 0 3.1 0.1 1 3
r 0.221856 1 0 ack 40 ------- 0 3.1 0.1 1 3
+ 0.6 0 1 tcp 1040 ---A--- 0 0.1 3.1 2 4
- 0.6 0 1 tcp 1040 ---A--- 0 0.1 3.1 2 4
r 0.615832 0 1 tcp 1040 ---A--- 0 0.1 3.1 2 4
+ 0.615832 1 3 tcp 1040 ---A--- 0 0.1 3.1 2 4
- 0.615832 1 3 tcp 1040 ---A--- 0 0.1 3.1 2 4
r 0.631664 1 3 tcp 1040 ---A--- 0 0.1 3.1 2 4
+ 0.631664 3 1 ack 40 ------- 0 3.1 0.1 2 5
- 0.631664 3 1 ack 40 ------- 0 3.1 0.1 2 5
r 0.646696 3 1 ack 40 ------- 0 3.1 0.1 2 5
+ 0.646696 1 0 ack 40 ------- 0 3.1 0.1 2 5
- 0.646696 1 0 ack 40 ------- 0 3.1 0.1 2 5
r 0.661728 1 0 ack 40 ------- 0 3.1 0.1 2 5
+ 1.1 0 1 tcp 1040 ---A--- 0 0.1 3.1 3 6
- 1.1 0 1 tcp 1040 ---A--- 0 0.1 3.1 3 6
r 1.115832 0 1 tcp 1040 ---A--- 0 0.1 3.1 3 6
+ 1.115832 1 3 tcp 1040 ---A--- 0 0.1 3.1 3 6
- 1.115832 1 3 tcp 1040 ---A--- 0 0.1 3.1 3 6
r 1.131664 1 3 tcp 1040 ---A--- 0 0.1 3.1 3 6
+ 1.131664 3 1 ack 40 ------- 0 3.1 0.1 3 7
- 1.131664 3 1 ack 40 ------- 0 3.1 0.1 3 7
r 1.146696 3 1 ack 40 ------- 0 3.1 0.1 3 7
+ 1.146696 1 0 ack 40 ------- 0 3.1 0.1 3 7
- 1.146696 1 0 ack 40 ------- 0 3.1 0.1 3 7
r 1.161728 1 0 ack 40 ------- 0 3.1 0.1 3 7
+ 1.6 0 1 tcp 1040 ---A--- 0 0.1 3.1 4 8
- 1.6 0 1 tcp 1040 ---A--- 0 0.1 3.1 4 8
r 1.615832 0 1 tcp 1040 ---A--- 0 0.1 3.1 4 8
+ 1.615832 1 3 tcp 1040 ---A--- 0 0.1 3.1 4 8
- 1.615832 1 3 tcp 1040 ---A--- 0 0.1 3.1 4 8
r 1.631664 1 3 tcp 1040 ---A--- 0 0.1 3.1 4 8
+ 1.631664 3 1 ack 40 ------- 0 3.1 0.1 4 9
- 1.631664 3 1 ack 40 ------- 0 3.1 0.1 4 9
r 1.646696 3 1 ack 40 ------- 0 3.1 0.1 4 9
+ 1.646696 1 0 ack 40 ------- 0 3.1 0.1 4 9
- 1.646696 1 0 ack 40 ------- 0 3.1 0.1 4 9
r 1.661728 1 0 ack 40 ------- 0 3.1 0.1 4 9
+ 2.1 0 1 tcp 1040 ---A--- 0 0.1 3.1 5 10
- 2.1 0 1 tcp 1040 ---A--- 0 0.1 3.1 5 10
r 2.115832 0 1 tcp 1040 ---A--- 0 0.1 3.1 5 10
+ 2.115832 1 3 tcp 1040 ---A--- 0 0.1 3.1 5 10
- 2.115832 1 3 tcp 1040 ---A--- 0 0.1 3.1 5 10
r 2.131664 1 3 tcp 1040 ---A--- 0 0.1 3.1 5 10
+ 2.131664 3 1 ack 40 ------- 0 3.1 0.1 5 11
- 2.131664 3 1 ack 40 ------- 0 3.1 0.1 5 11
r 2.146696 3 1 ack 40 ------- 0 3.1 0.1 5 11
+ 2.146696 1 0 ack 40 ------- 0 3.1 0.1 5 11
- 2.146696 1 0 ack 40 ------- 0 3.1 0.1 5 11
r 2.161728 1 0 ack 40 ------- 0 3.1 0.1 5 11
+ 2.6 0 1 tcp 1040 ---A--- 0 0.1 3.1 6 12
- 2.6 0 1 tcp 1040 ---A--- 0 0.1 3.1 6 12
r 2.615832 0 1 tcp 1040 ---A--- 0 0.1 3.1 6 12
+ 2.615832 1 3 tcp 1040 ---A--- 0 0.1 3.1 6 12
- 2.615832 1 3 tcp 1040 ---A--- 0 0.1 3.1 6 12
r 2.631664 1 3 tcp 1040 ---A--- 0 0.1 3.1 6 12
+ 2.631664 3 1 ack 40 ------- 0 3.1 0.1 6 13
- 2.631664 3 1 ack 40 ------- 0 3.1 0.1 6 13
r 2.646696 3 1 ack 40 ------- 0 3.1 0.1 6 13
+ 2.646696 1 0 ack 40 ------- 0 3.1 0.1 6 13
- 2.646696 1 0 ack 40 ------- 0 3.1 0.1 6 13
r 2.661728 1 0 ack 40 ------- 0 3.1 0.1 6 13
+ 3.1 0 1 tcp 1040 ---A--- 0 0.1 3.1 7 14
- 3.1 0 1 tcp 1040 ---A--- 0 0.1 3.1 7 14
r 3.115832 0 1 tcp 1040 ---A--- 0 0.1 3.1 7 14
+ 3.115832 1 3 tcp 1040 ---A--- 0 0.1 3.1 7 14
- 3.115832 1 3 tcp 1040 ---A--- 0 0.1 3.1 7 14
r 3.131664 1 3 tcp 1040 ---A--- 0 0.1 3.1 7 14
+ 3.131664 3 1 ack 40 ------- 0 3.1 0.1 7 15
- 3.131664 3 1 ack 40 ------- 0 3.1 0.1 7 15
r 3.146696 3 1 ack 40 ------- 0 3.1 0.1 7 15
+ 3.146696 1 0 ack 40 ------- 0 3.1 0.1 7 15
- 3.146696 1 0 ack 40 ------- 0 3.1 0.1 7 15
r 3.161728 1 0 ack 40 ------- 0 3.1 0.1 7 15
+ 3.6 0 1 tcp 1040 ---A--- 0 0.1 3.1 8 16
- 3.6 0 1 tcp 1040 ---A--- 0 0.1 3.1 8 16
r 3.615832 0 1 tcp 1040 ---A--- 0 0.1 3.1 8 16
+ 3.615832 1 3 tcp 1040 ---A--- 0 0.1 3.1 8 16
- 3.615832 1 3 tcp 1040 ---A--- 0 0.1 3.1 8 16
r 3.631664 1 3 tcp 1040 ---A--- 0 0.1 3.1 8 16
+ 3.631664 3 1 ack 40 ------- 0 3.1 0.1 8 17
- 3.631664 3 1 ack 40 ------- 0 3.1 0.1 8 17
r 3.646696 3 1 ack 40 ------- 0 3.1 0.1 8 17
+ 3.646696 1 0 ack 40 ------- 0 3.1 0.1 8 17
- 3.646696 1 0 ack 40 ------- 0 3.1 0.1 8 17
r 3.661728 1 0 ack 40 ------- 0 3.1 0.1 8 17
+ 4.1 0 1 tcp 1040 ---A--- 0 0.1 3.1 9 18
- 4.1 0 1 tcp 1040 ---A--- 0 0.1 3.1 9 18
r 4.115832 0 1 tcp 1040 ---A--- 0 0.1 3.1 9 18
+ 4.115832 1 3 tcp 1040 ---A--- 0 0.1 3.1 9 18
- 4.115832 1 3 tcp 1040 ---A--- 0 0.1 3.1 9 18
r 4.131664 1 3 tcp 1040 ---A--- 0 0.1 3.1 9 18
+ 4.131664 3 1 ack 40 ------- 0 3.1 0.1 9 19
- 4.131664 3 1 ack 40 ------- 0 3.1 0.1 9 19
r 4.146696 3 1 ack 40 ------- 0 3.1 0.1 9 19
+ 4.146696 1 0 ack 40 ------- 0 3.1 0.1 9 19
- 4.146696 1 0 ack 40 ------- 0 3.1 0.1 9 19
r 4.161728 1 0 ack 40 ------- 0 3.1 0.1 9 19
+ 4.6 0 1 tcp 1040 ---A--- 0 0.1 3.1 10 20
- 4.6 0 1 tcp 1040 ---A--- 0 0.1 3.1 10 20
r 4.615832 0 1 tcp 1040 ---A--- 0 0.1 3.1 10 20
+ 4.615832 1 3 tcp 1040 ---A--- 0 0.1 3.1 10 20
- 4.615832 1 3 tcp 1040 ---A--- 0 0.1 3.1 10 20
r 4.631664 1 3 tcp 1040 ---A--- 0 0.1 3.1 10 20
+ 4.631664 3 1 ack 40 ------- 0 3.1 0.1 10 21
- 4.631664 3 1 ack 40 ------- 0 3.1 0.1 10 21
r 4.646696 3 1 ack 40 ------- 0 3.1 0.1 10 21
+ 4.646696 1 0 ack 40 ------- 0 3.1 0.1 10 21
- 4.646696 1 0 ack 40 ------- 0 3.1 0.1 10 21
r 4.661728 1 0 ack 40 ------- 0 3.1 0.1 10 21
+ 5.1 0 1 tcp 1040 ---A--- 0 0.1 3.1 11 22
- 5.1 0 1 tcp 1040 ---A--- 0 0.1 3.1 11 22
r 5.115832 0 1 tcp 1040 ---A--- 0 0.1 3.1 11 22
+ 5.115832 1 3 tcp 1040 ---A--- 0 0.1 3.1 11 22
- 5.115832 1 3 tcp 1040 ---A--- 0 0.1 3.1 11 22
r 5.131664 1 3 tcp 1040 ---A--- 0 0.1 3.1 11 22
+ 5.131664 3 1 ack 40 ------- 0 3.1 0.1 11 23
- 5.131664 3 1 ack 40 ------- 0 3.1 0.1 11 23
r 5.146696 3 1 ack 40 ------- 0 3.1 0.1 11 23
+ 5.146696 1 0 ack 40 ------- 0 3.1 0.1 11 23
- 5.146696 1 0 ack 40 ------- 0 3.1 0.1 11 23
r 5.161728 1 0 ack 40 ------- 0 3.1 0.1 11 23
+ 5.6 0 1 tcp 1040 ---A--- 0 0.1 3.1 12 24
- 5.6 0 1 tcp 1040 ---A--- 0 0.1 3.1 12 24
r 5.615832 0 1 tcp 1040 ---A--- 0 0.1 3.1 12 24
+ 5.615832 1 3 tcp 1040 ---A--- 0 0.1 3.1 12 24
- 5.615832 1 3 tcp 1040 ---A--- 0 0.1 3.1 12 24
r 5.631664 1 3 tcp 1040 ---A--- 0 0.1 3.1 12 24
+ 5.631664 3 1 ack 40 ------- 0 3.1 0.1 12 25
- 5.631664 3 1 ack 40 ------- 0 3.1 0.1 12 25
r 5.646696 3 1 ack 40 ------- 0 3.1 0.1 12 25
+ 5.646696 1 0 ack 40 ------- 0 3.1 0.1 12 25
- 5.646696 1 0 ack 40 ------- 0 3.1 0.1 12 25
r 5.661728 1 0 ack 40 ------- 0 3.1 0.1 12 25
+ 6.1 0 1 tcp 1040 ---A--- 0 0.1 3.1 13 26
- 6.1 0 1 tcp 1040 ---A--- 0 0.1 3.1 13 26
r 6.115832 0 1 tcp 1040 ---A--- 0 0.1 3.1 13 26
+ 6.115832 1 3 tcp 1040 ---A--- 0 0.1 3.1 13 26
- 6.115832 1 3 tcp 1040 ---A--- 0 0.1 3.1 13 26
r 6.131664 1 3 tcp 1040 ---A--- 0 0.1 3.1 13 26
+ 6.131664 3 1 ack 40 ------- 0 3.1 0.1 13 27
- 6.131664 3 1 ack 40 ------- 0 3.1 0.1 13 27
r 6.146696 3 1 ack 40 ------- 0 3.1 0.1 13 27
+ 6.146696 1 0 ack 40 ------- 0 3.1 0.1 13 27
- 6.146696 1 0 ack 40 ------- 0 3.1 0.1 13 27
r 6.161728 1 0 ack 40 ------- 0 3.1 0.1 13 27
+ 6.6 0 1 tcp 1040 ---A--- 0 0.1 3.1 14 28
- 6.6 0 1 tcp 1040 ---A--- 0 0.1 3.1 14 28
r 6.615832 0 1 tcp 1040 ---A--- 0 0.1 3.1 14 28
+ 6.615832 1 3 tcp 1040 ---A--- 0 0.1 3.1 14 28
- 6.615832 1 3 tcp 1040 ---A--- 0 0.1 3.1 14 28
r 6.631664 1 3 tcp 1040 ---A--- 0 0.1 3.1 14 28
+ 6.631664 3 1 ack 40 ------- 0 3.1 0.1 14 29
- 6.631664 3 1 ack 40 ------- 0 3.1 0.1 14 29
r 6.646696 3 1 ack 40 ------- 0 3.1 0.1 14 29
+ 6.646696 1 0 ack 40 ------- 0 3.1 0.1 14 29
- 6.646696 1 0 ack 40 ------- 0 3.1 0.1 14 29
r 6.661728 1 0 ack 40 ------- 0 3.1 0.1 14 29
+ 7.1 0 1 tcp 1040 ---A--- 0 0.1 3.1 15 30
- 7.1 0 1 tcp 1040 ---A--- 0 0.1 3.1 15 30
r 7.115832 0 1 tcp 1040 ---A--- 0 0.1 3.1 15 30
+ 7.115832 1 3 tcp 1040 ---A--- 0 0.1 3.1 15 30
- 7.115832 1 3 tcp 1040 ---A--- 0 0.1 3.1 15 30
r 7.131664 1 3 tcp 1040 ---A--- 0 0.1 3.1 15 30
+ 7.131664 3 1 ack 40 ------- 0 3.1 0.1 15 31
- 7.131664 3 1 ack 40 ------- 0 3.1 0.1 15 31
r 7.146696 3 1 ack 40 ------- 0 3.1 0.1 15 31
+ 7.146696 1 0 ack 40 ------- 0 3.1 0.1 15 31
- 7.146696 1 0 ack 40 ------- 0 3.1 0.1 15 31
r 7.161728 1 0 ack 40 ------- 0 3.1 0.1 15 31
+ 7.6 0 1 tcp 1040 ---A--- 0 0.1 3.1 16 32
- 7.6 0 1 tcp 1040 ---A--- 0 0.1 3.1 16 32
r 7.615832 0 1 tcp 1040 ---A--- 0 0.1 3.1 16 32
+ 7.615832 1 3 tcp 1040 ---A--- 0 0.1 3.1 16 32
- 7.615832 1 3 tcp 1040 ---A--- 0 0.1 3.1 16 32
r 7.631664 1 3 tcp 1040 ---A--- 0 0.1 3.1 16 32
+ 7.631664 3 1 ack 40 ------- 0 3.1 0.1 16 33
- 7.631664 3 1 ack 40 ------- 0 3.1 0.1 16 33
r 7.646696 3 1 ack 40 ------- 0 3.1 0.1 16 33
+ 7.646696 1 0 ack 40 ------- 0 3.1 0.1 16 33
- 7.646696 1 0 ack 40 ------- 0 3.1 0.1 16 33
r 7.661728 1 0 ack 40 ------- 0 3.1 0.1 16 33
+ 8.1 0 1 tcp 1040 ---A--- 0 0.1 3.1 17 34
- 8.1 0 1 tcp 1040 ---A--- 0 0.1 3.1 17 34
r 8.115832 0 1 tcp 1040 ---A--- 0 0.1 3.1 17 34
+ 8.115832 1 3 tcp 1040 ---A--- 0 0.1 3.1 17 34
- 8.115832 1 3 tcp 1040 ---A--- 0 0.1 3.1 17 34
r 8.131664 1 3 tcp 1040 ---A--- 0 0.1 3.1 17 34
+ 8.131664 3 1 ack 40 ------- 0 3.1 0.1 17 35
- 8.131664 3 1 ack 40 ------- 0 3.1 0.1 17 35
r 8.146696 3 1 ack 40 ------- 0 3.1 0.1 17 35
+ 8.146696 1 0 ack 40 ------- 0 3.1 0.1 17 35
- 8.146696 1 0 ack 40 ------- 0 3.1 0.1 17 35
r 8.161728 1 0 ack 40 ------- 0 3.1 0.1 17 35
+ 8.6 0 1 tcp 1040 ---A--- 0 0.1 3.1 18 36
- 8.6 0 1 tcp 1040 ---A--- 0 0.1 3.1 18 36
r 8.615832 0 1 tcp 1040 ---A--- 0 0.1 3.1 18 36
+ 8.615832 1 3 tcp 1040 ---A--- 0 0.1 3.1 18 36
- 8.615832 1 3 tcp 1040 ---A--- 0 0.1 3.1 18 36
r 8.631664 1 3 tcp 1040 ---A--- 0 0.1 3.1 18 36
+ 8.631664 3 1 ack 40 ------- 0 3.1 0.1 18 37
- 8.631664 3 1 ack 40 ------- 0 3.1 0.1 18 37
r 8.646696 3 1 ack 40 ------- 0 3.1 0.1 18 37
+ 8.646696 1 0 ack 40 ------- 0 3.1 0.1 18 37
- 8.646696 1 0 ack 40 ------- 0 3.1 0.1 18 37
r 8.661728 1 0 ack 40 ------- 0 3.1 0.1 18 37
+ 9.1 0 1 tcp 1040 ---A--- 0 0.1 3.1 19 38
- 9.1 0 1 tcp 1040 ---A--- 0 0.1 3.1 19 38
r 9.115832 0 1 tcp 1040 ---A--- 0 0.1 3.1 19 38
+ 9.115832 1 3 tcp 1040 ---A--- 0 0.1 3.1 19 38
- 9.115832 1 3 tcp 1040 ---A--- 0 0.1 3.1 19 38
r 9.131664 1 3 tcp 1040 ---A--- 0 0.1 3.1 19 38
+ 9.131664 3 1 ack 40 ------- 0 3.1 0.1 19 39
- 9.131664 3 1 ack 40 ------- 0 3.1 0.1 19 39
r 9.146696 3 1 ack 40 ------- 0 3.1 0.1 19 39
+ 9.146696 1 0 ack 40 ------- 0 3.1 0.1 19 39
- 9.146696 1 0 ack 40 ------- 0 3.1 0.1 19 39
r 9.161728 1 0 ack 40 ------- 0 3.1 0.1 19 39
+ 9.6 0 1 tcp 1040 ---A--- 0 0.1 3.1 20 40
- 9.6 0 1 tcp 1040 ---A--- 0 0.1 3.1 20 40
r 9.615832 0 1 tcp 1040 ---A--- 0 0.1 3.1 20 40
+ 9.615832 1 3 tcp 1040 ---A--- 0 0.1 3.1 20 40
- 9.615832 1 3 tcp 1040 ---A--- 0 0.1 3.1 20 40
r 9.631664 1 3 tcp 1040 ---A--- 0 0.1 3.1 20 40
+ 9.631664 3 1 ack 40 ------- 0 3.1 0.1 20 41
- 9.631664 3 1 ack 40 ------- 0 3.1 0.1 20 41
r 9.646696 3 1 ack 40 ------- 0 3.1 0.1 20 41
+ 9.646696 1 0 ack 40 ------- 0 3.1 0.1 20 41
- 9.646696 1 0 ack 40 ------- 0 3.1 0.1 20 41
r 9.661728 1 0 ack 40 ------- 0 3.1 0.1 20 41
+ 10.1 0 1 tcp 1040 ---A--- 0 0.1 3.1 21 42
- 10.1 0 1 tcp 1040 ---A--- 0 0.1 3.1 21 42
r 10.115832 0 1 tcp 1040 ---A--- 0 0.1 3.1 21 42
+ 10.115832 1 3 tcp 1040 ---A--- 0 0.1 3.1 21 42
- 10.115832 1 3 tcp 1040 ---A--- 0 0.1 3.1 21 42
r 10.131664 1 3 tcp 1040 ---A--- 0 0.1 3.1 21 42
+ 10.131664 3 1 ack 40 ------- 0 3.1 0.1 21 43
- 10.131664 3 1 ack 40 ------- 0 3.1 0.1 21 43
r 10.146696 3 1 ack 40 ------- 0 3.1 0.1 21 43
+ 10.146696 1 0 ack 40 ------- 0 3.1 0.1 21 43
- 10.146696 1 0 ack 40 ------- 0 3.1 0.1 21 43
r 10.161728 1 0 ack 40 ------- 0 3.1 0.1 21 43
+ 10.6 0 1 tcp 1040 ---A--- 0 0.1 3.1 22 44
- 10.6 0 1 tcp 1040 ---A--- 0 0.1 3.1 22 44
r 10.615832 0 1 tcp 1040 ---A--- 0 0.1 3.1 22 44
+ 10.615832 1 3 tcp 1040 ---A--- 0 0.1 3.1 22 44
- 10.615832 1 3 tcp 1040 ---A--- 0 0.1 3.1 22 44
r 10.631664 1 3 tcp 1040 ---A--- 0 0.1 3.1 22 44
+ 10.631664 3 1 ack 40 ------- 0 3.1 0.1 22 45
- 10.631664 3 1 ack 40 ------- 0 3.1 0.1 22 45
r 10.646696 3 1 ack 40 ------- 0 3.1 0.1 22 45
+ 10.646696 1 0 ack 40 ------- 0 3.1 0.1 22 45
- 10.646696 1 0 ack 40 ------- 0 3.1 0.1 22 45
r 10.661728 1 0 ack 40 ------- 0 3.1 0.1 22 45
+ 11.1 0 1 tcp 1040 ---A--- 0 0.1 3.1 23 46
- 11.1 0 1 tcp 1040 ---A--- 0 0.1 3.1 23 46
r 11.115832 0 1 tcp 1040 ---A--- 0 0.1 3.1 23 46
+ 11.115832 1 3 tcp 1040 ---A--- 0 0.1 3.1 23 46
- 11.115832 1 3 tcp 1040 ---A--- 0 0.1 3.1 23 46
r 11.131664 1 3 tcp 1040 ---A--- 0 0.1 3.1 23 46
+ 11.131664 3 1 ack 40 ------- 0 3.1 0.1 23 47
- 11.131664 3 1 ack 40 ------- 0 3.1 0.1 23 47
r 11.146696 3 1 ack 40 ------- 0 3.1 0.1 23 47
+ 11.146696 1 0 ack 40 ------- 0 3.1 0.1 23 47
- 11.146696 1 0 ack 40 ------- 0 3.1 0.1 23 47
r 11.161728 1 0 ack 40 ------- 0 3.1 0.1 23 47
+ 11.6 0 1 tcp 1040 ---A--- 0 0.1 3.1 24 48
- 11.6 0 1 tcp 1040 ---A--- 0 0.1 3.1 24 48
r 11.615832 0 1 tcp 1040 ---A--- 0 0.1 3.1 24 48
+ 11.615832 1 3 tcp 1040 ---A--- 0 0.1 3.1 24 48
- 11.615832 1 3 tcp 1040 ---A--- 0 0.1 3.1 24 48
r 11.631664 1 3 tcp 1040 ---A--- 0 0.1 3.1 24 48
+ 11.631664 3 1 ack 40 ------- 0 3.1 0.1 24 49
- 11.631664 3 1 ack 40 ------- 0 3.1 0.1 24 49
r 11.646696 3 1 ack 40 ------- 0 3.1 0.1 24 49
+ 11.646696 1 0 ack 40 ------- 0 3.1 0.1 24 49
- 11.646696 1 0 ack 40 ------- 0 3.1 0.1 24 49
r 11.661728 1 0 ack 40 ------- 0 3.1 0.1 24 49
+ 12.1 0 1 tcp 1040 ---A--- 0 0.1 3.1 25 50
- 12.1 0 1 tcp 1040 ---A--- 0 0.1 3.1 25 50
r 12.115832 0 1 tcp 1040 ---A--- 0 0.1 3.1 25 50
+ 12.115832 1 3 tcp 1040 ---A--- 0 0.1 3.1 25 50
- 12.115832 1 3 tcp 1040 ---A--- 0 0.1 3.1 25 50
r 12.131664 1 3 tcp 1040 ---A--- 0 0.1 3.1 25 50
+ 12.131664 3 1 ack 40 ------- 0 3.1 0.1 25 51
- 12.131664 3 1 ack 40 ------- 0 3.1 0.1 25 51
r 12.146696 3 1 ack 40 ------- 0 3.1 0.1 25 51
+ 12.146696 1 0 ack 40 ------- 0 3.1 0.1 25 51
- 12.146696 1 0 ack 40 ------- 0 3.1 0.1 25 51
r 12.161728 1 0 ack 40 ------- 0 3.1 0.1 25 51
+ 12.6 0 1 tcp 1040 ---A--- 0 0.1 3.1 26 52
- 12.6 0 1 tcp 1040 ---A--- 0 0.1 3.1 26 52
r 12.615832 0 1 tcp 1040 ---A--- 0 0.1 3.1 26 52
+ 12.615832 1 3 tcp 1040 ---A--- 0 0.1 3.1 26 52
- 12.615832 1 3 tcp 1040 ---A--- 0 0.1 3.1 26 52
r 12.631664 1 3 tcp 1040 ---A--- 0 0.1 3.1 26 52
+ 12.631664 3 1 ack 40 ------- 0 3.1 0.1 26 53
- 12.631664 3 1 ack 40 ------- 0 3.1 0.1 26 53
r 12.646696 3 1 ack 40 ------- 0 3.1 0.1 26 53
+ 12.646696 1 0 ack 40 ------- 0 3.1 0.1 26 53
- 12.646696 1 0 ack 40 ------- 0 3.1 0.1 26 53
r 12.661728 1 0 ack 40 ------- 0 3.1 0.1 26 53
+ 13.1 0 1 tcp 1040 ---A--- 0 0.1 3.1 27 54
- 13.1 0 1 tcp 1040 ---A--- 0 0.1 3.1 27 54
r 13.115832 0 1 tcp 1040 ---A--- 0 0.1 3.1 27 54
+ 13.115832 1 3 tcp 1040 ---A--- 0 0.1 3.1 27 54
- 13.115832 1 3 tcp 1040 ---A--- 0 0.1 3.1 27 54
r 13.131664 1 3 tcp 1040 ---A--- 0 0.1 3.1 27 54
+ 13.131664 3 1 ack 40 ------- 0 3.1 0.1 27 55
- 13.131664 3 1 ack 40 ------- 0 3.1 0.1 27 55
r 13.146696 3 1 ack 40 ------- 0 3.1 0.1 27 55
+ 13.146696 1 0 ack 40 ------- 0 3.1 0.1 27 55
- 13.146696 1 0 ack 40 ------- 0 3.1 0.1 27 55
r 13.161728 1 0 ack 40 ------- 0 3.1 0.1 27 55
+ 13.6 0 1 tcp 1040 ---A--- 0 0.1 3.1 28 56
- 13.6 0 1 tcp 1040 ---A--- 0 0.1 3.1 28 56
r 13.615832 0 1 tcp 1040 ---A--- 0 0.1 3.1 28 56
+ 13.615832 1 3 tcp 1040 ---A--- 0 0.1 3.1 28 56
- 13.615832 1 3 tcp 1040 ---A--- 0 0.1 3.1 28 56
r 13.631664 1 3 tcp 1040 ---A--- 0 0.1 3.1 28 56
+ 13.631664 3 1 ack 40 ------- 0 3.1 0.1 28 57
- 13.631664 3 1 ack 40 ------- 0 3.1 0.1 28 57
r 13.646696 3 1 ack 40 ------- 0 3.1 0.1 28 57
+ 13.646696 1 0 ack 40 ------- 0 3.1 0.1 28 57
- 13.646696 1 0 ack 40 ------- 0 3.1 0.1 28 57
r 13.661728 1 0 ack 40 ------- 0 3.1 0.1 28 57
+ 14.1 0 1 tcp 1040 ---A--- 0 0.1 3.1 29 58
- 14.1 0 1 tcp 1040 ---A--- 0 0.1 3.1 29 58
r 14.115832 0 1 tcp 1040 ---A--- 0 0.1 3.1 29 58
+ 14.115832 1 3 tcp 1040 ---A--- 0 0.1 3.1 29 58
- 14.115832 1 3 tcp 1040 ---A--- 0 0.1 3.1 29 58
r 14.131664 1 3 tcp 1040 ---A--- 0 0.1 3.1 29 58
+ 14.131664 3 1 ack 40 ------- 0 3.1 0.1 29 59
- 14.131664 3 1 ack 40 ------- 0 3.1 0.1 29 59
r 14.146696 3 1 ack 40 ------- 0 3.1 0.1 29 59
+ 14.146696 1 0 ack 40 ------- 0 3.1 0.1 29 59
- 14.146696 1 0 ack 40 ------- 0 3.1 0.1 29 59
r 14.161728 1 0 ack 40 ------- 0 3.1 0.1 29 59
+ 14.6 0 1 tcp 1040 ---A--- 0 0.1 3.1 30 60
- 14.6 0 1 tcp 1040 ---A--- 0 0.1 3.1 30 60
r 14.615832 0 1 tcp 1040 ---A--- 0 0.1 3.1 30 60
+ 14.615832 1 3 tcp 1040 ---A--- 0 0.1 3.1 30 60
- 14.615832 1 3 tcp 1040 ---A--- 0 0.1 3.1 30 60
r 14.631664 1 3 tcp 1040 ---A--- 0 0.1 3.1 30 60
+ 14.631664 3 1 ack 40 ------- 0 3.1 0.1 30 61
- 14.631664 3 1 ack 40 ------- 0 3.1 0.1 30 61
r 14.646696 3 1 ack 40 ------- 0 3.1 0.1 30 61
+ 14.646696 1 0 ack 40 ------- 0 3.1 0.1 30 61
- 14.646696 1 0 ack 40 ------- 0 3.1 0.1 30 61
r 14.661728 1 0 ack 40 ------- 0 3.1 0.1 30 61
+ 15.1 0 1 tcp 1040 ---A--- 0 0.1 3.1 31 62
- 15.1 0 1 tcp 1040 ---A--- 0 0.1 3.1 31 62
r 15.115832 0 1 tcp 1040 ---A--- 0 0.1 3.1 31 62
+ 15.115832 1 3 tcp 1040 ---A--- 0 0.1 3.1 31 62
- 15.115832 1 3 tcp 1040 ---A--- 0 0.1 3.1 31 62
r 15.131664 1 3 tcp 1040 ---A--- 0 0.1 3.1 31 62
+ 15.131664 3 1 ack 40 ------- 0 3.1 0.1 31 63
- 15.131664 3 1 ack 40 ------- 0 3.1 0.1 31 63
r 15.146696 3 1 ack 40 ------- 0 3.1 0.1 31 63
+ 15.146696 1 0 ack 40 ------- 0 3.1 0.1 31 63
- 15.146696 1 0 ack 40 ------- 0 3.1 0.1 31 63
r 15.161728 1 0 ack 40 ------- 0 3.1 0.1 31 63
+ 15.6 0 1 tcp 1040 ---A--- 0 0.1 3.1 32 64
- 15.6 0 1 tcp 1040 ---A--- 0 0.1 3.1 32 64
r 15.615832 0 1 tcp 1040 ---A--- 0 0.1 3.1 32 64
+ 15.615832 1 3 tcp 1040 ---A--- 0 0.1 3.1 32 64
- 15.615832 1 3 tcp 1040 ---A--- 0 0.1 3.1 32 64
r 15.631664 1 3 tcp 1040 ---A--- 0 0.1 3.1 32 64
+ 15.631664 3 1 ack 40 ------- 0 3.1 0.1 32 65
- 15.631664 3 1 ack 40 ------- 0 3.1 0.1 32 65
r 15.646696 3 1 ack 40 ------- 0 3.1 0.1 32 65
+ 15.646696 1 0 ack 40 ------- 0 3.1 0.1 32 65
- 15.646696 1 0 ack 40 ------- 0 3.1 0.1 32 65
r 15.661728 1 0 ack 40 ------- 0 3.1 0.1 32 65
+ 16.1 0 1 tcp 1040 ---A--- 0 0.1 3.1 33 66
- 16.1 0 1 tcp 1040 ---A--- 0 0.1 3.1 33 66
r 16.115832 0 1 tcp 1040 ---A--- 0 0.1 3.1 33 66
+ 16.115832 1 3 tcp 1040 ---A--- 0 0.1 3.1 33 66
- 16.115832 1 3 tcp 1040 ---A--- 0 0.1 3.1 33 66
r 16.131664 1 3 tcp 1040 ---A--- 0 0.1 3.1 33 66
+ 16.131664 3 1 ack 40 ------- 0 3.1 0.1 33 67
- 16.131664 3 1 ack 40 ------- 0 3.1 0.1 33 67
r 16.146696 3 1 ack 40 ------- 0 3.1 0.1 33 67
+ 16.146696 1 0 ack 40 ------- 0 3.1 0.1 33 67
- 16.146696 1 0 ack 40 ------- 0 3.1 0.1 33 67
r 16.161728 1 0 ack 40 ------- 0 3.1 0.1 33 67
+ 16.6 0 1 tcp 1040 ---A--- 0 0.1 3.1 34 68
- 16.6 0 1 tcp 1040 ---A--- 0 0.1 3.1 34 68
r 16.615832 0 1 tcp 1040 ---A--- 0 0.1 3.1 34 68
+ 16.615832 1 3 tcp 1040 ---A--- 0 0.1 3.1 34 68
- 16.615832 1 3 tcp 1040 ---A--- 0 0.1 3.1 34 68
r 16.631664 1 3 tcp 1040 ---A--- 0 0.1 3.1 34 68
+ 16.631664 3 1 ack 40 ------- 0 3.1 0.1 34 69
- 16.631664 3 1 ack 40 ------- 0 3.1 0.1 34 69
r 16.646696 3 1 ack 40 ------- 0 3.1 0.1 34 69
+ 16.646696 1 0 ack 40 ------- 0 3.1 0.1 34 69
- 16.646696 1 0 ack 40 ------- 0 3.1 0.1 34 69
r 16.661728 1 0 ack 40 ------- 0 3.1 0.1 34 69
+ 17.1 0 1 tcp 1040 ---A--- 0 0.1 3.1 35 70
- 17.1 0 1 tcp 1040 ---A--- 0 0.1 3.1 35 70
r 17.115832 0 1 tcp 1040 ---A--- 0 0.1 3.1 35 70
+ 17.115832 1 3 tcp 1040 ---A--- 0 0.1 3.1 35 70
- 17.115832 1 3 tcp 1040 ---A--- 0 0.1 3.1 35 70
r 17.131664 1 3 tcp 1040 ---A--- 0 0.1 3.1 35 70
+ 17.131664 3 1 ack 40 ------- 0 3.1 0.1 35 71
- 17.131664 3 1 ack 40 ------- 0 3.1 0.1 35 71
r 17.146696 3 1 ack 40 ------- 0 3.1 0.1 35 71
+ 17.146696 1 0 ack 40 ------- 0 3.1 0.1 35 71
- 17.146696 1 0 ack 40 ------- 0 3.1 0.1 35 71
r 17.161728 1 0 ack 40 ------- 0 3.1 0.1 35 71
+ 17.6 0 1 tcp 1040 ---A--- 0 0.1 3.1 36 72
- 17.6 0 1 tcp 1040 ---A--- 0 0.1 3.1 36 72
r 17.615832 0 1 tcp 1040 ---A--- 0 0.1 3.1 36 72
+ 17.615832 1 3 tcp 1040 ---A--- 0 0.1 3.1 36 72
- 17.615832 1 3 tcp 1040 ---A--- 0 0.1 3.1 36 72
r 17.631664 1 3 tcp 1040 ---A--- 0 0.1 3.1 36 72
+ 17.631664 3 1 ack 40 ------- 0 3.1 0.1 36 73
- 17.631664 3 1 ack 40 ------- 0 3.1 0.1 36 73
r 17.646696 3 1 ack 40 ------- 0 3.1 0.1 36 73
+ 17.646696 1 0 ack 40 ------- 0 3.1 0.1 36 73
- 17.646696 1 0 ack 40 ------- 0 3.1 0.1 36 73
r 17.661728 1 0 ack 40 ------- 0 3.1 0.1 36 73
+ 18.1 0 1 tcp 1040 ---A--- 0 0.1 3.1 37 74
- 18.1 0 1 tcp 1040 ---A--- 0 0.1 3.1 37 74
r 18.115832 0 1 tcp 1040 ---A--- 0 0.1 3.1 37 74
+ 18.115832 1 3 tcp 1040 ---A--- 0 0.1 3.1 37 74
- 18.115832 1 3 tcp 1040 ---A--- 0 0.1 3.1 37 74
r 18.131664 1 3 tcp 1040 ---A--- 0 0.1 3.1 37 74
+ 18.131664 3 1 ack 40 ------- 0 3.1 0.1 37 75
- 18.131664 3 1 ack 40 ------- 0 3.1 0.1 37 75
r 18.146696 3 1 ack 40 ------- 0 3.1 0.1 37 75
+ 18.146696 1 0 ack 40 ------- 0 3.1 0.1 37 75
- 18.146696 1 0 ack 40 ------- 0 3.1 0.1 37 75
r 18.161728 1 0 ack 40 ------- 0 3.1 0.1 37 75
+ 18.6 0 1 tcp 1040 ---A--- 0 0.1 3.1 38 76
- 18.6 0 1 tcp 1040 ---A--- 0 0.1 3.1 38 76
r 18.615832 0 1 tcp 1040 ---A--- 0 0.1 3.1 38 76
+ 18.615832 1 3 tcp 1040 ---A--- 0 0.1 3.1 38 76
- 18.615832 1 3 tcp 1040 ---A--- 0 0.1 3.1 38 76
r 18.631664 1 3 tcp 1040 ---A--- 0 0.1 3.1 38 76
+ 18.631664 3 1 ack 40 ------- 0 3.1 0.1 38 77
- 18.631664 3 1 ack 40 ------- 0 3.1 0.1 38 77
r 18.646696 3 1 ack 40 ------- 0 3.1 0.1 38 77
+ 18.646696 1 0 ack 40 ------- 0 3.1 0.1 38 77
- 18.646696 1 0 ack 40 ------- 0 3.1 0.1 38 77
r 18.661728 1 0 ack 40 ------- 0 3.1 0.1 38 77
+ 19.1 0 1 tcp 1040 ---A--- 0 0.1 3.1 39 78
- 19.1 0 1 tcp 1040 ---A--- 0 0.1 3.1 39 78
r 19.115832 0 1 tcp 1040 ---A--- 0 0.1 3.1 39 78
+ 19.115832 1 3 tcp 1040 ---A--- 0 0.1 3.1 39 78
- 19.115832 1 3 tcp 1040 ---A--- 0 0.1 3.1 39 78
r 19.131664 1 3 tcp 1040 ---A--- 0 0.1 3.1 39 78
+ 19.131664 3 1 ack 40 ------- 0 3.1 0.1 39 79
- 19.131664 3 1 ack 40 ------- 0 3.1 0.1 39 79
r 19.146696 3 1 ack 40 ------- 0 3.1 0.1 39 79
+ 19.146696 1 0 ack 40 ------- 0 3.1 0.1 39 79
- 19.146696 1 0 ack 40 ------- 0 3.1 0.1 39 79
r 19.161728 1 0 ack 40 ------- 0 3.1 0.1 39 79
+ 19.6 0 1 tcp 1040 ---A--- 0 0.1 3.1 40 80
- 19.6 0 1 tcp 1040 ---A--- 0 0.1 3.1 40 80
r 19.615832 0 1 tcp 1040 ---A--- 0 0.1 3.1 40 80
+ 19.615832 1 3 tcp 1040 ---A--- 0 0.1 3.1 40 80
- 19.615832 1 3 tcp 1040 ---A--- 0 0.1 3.1 40 80
r 19.631664 1 3 tcp 1040 ---A--- 0 0.1 3.1 40 80
+ 19.631664 3 1 ack 40 ------- 0 3.1 0.1 40 81
- 19.631664 3 1 ack 40 ------- 0 3.1 0.1 40 81
r 19.646696 3 1 ack 40 ------- 0 3.1 0.1 40 81
+ 19.646696 1 0 ack 40 ------- 0 3.1 0.1 40 81
- 19.646696 1 0 ack 40 ------- 0 3.1 0.1 40 81
r 19.661728 1 0 ack 40 ------- 0 3.1 0.1 40 81
+ 20.1 0 1 tcp 1040 ---A--- 0 0.1 3.1 41 82
- 20.1 0 1 tcp 1040 ---A--- 0 0.1 3.1 41 82
r 20.115832 0 1 tcp 1040 ---A--- 0 0.1 3.1 41 82
+ 20.115832 1 3 tcp 1040 ---A--- 0 0.1 3.1 41 82
- 20.115832 1 3 tcp 1040 ---A--- 0 0.1 3.1 41 82
r 20.131664 1 3 tcp 1040 ---A--- 0 0.1 3.1 41 82
+ 20.131664 3 1 ack 40 ------- 0 3.1 0.1 41 83
- 20.131664 3 1 ack 40 ------- 0 3.1 0.1 41 83
r 20.146696 3 1 ack 40 ------- 0 3.1 0.1 41 83
+ 20.146696 1 0 ack 40 ------- 0 3.1 0.1 41 83
- 20.146696 1 0 ack 40 ------- 0 3.1 0.1 41 83
r 20.161728 1 0 ack 40 ------- 0 3.1 0.1 41 83
+ 20.6 0 1 tcp 1040 ---A--- 0 0.1 3.1 42 84
- 20.6 0 1 tcp 1040 ---A--- 0 0.1 3.1 42 84
r 20.615832 0 1 tcp 1040 ---A--- 0 0.1 3.1 42 84
+ 20.615832 1 3 tcp 1040 ---A--- 0 0.1 3.1 42 84
- 20.615832 1 3 tcp 1040 ---A--- 0 0.1 3.1 42 84
r 20.631664 1 3 tcp 1040 ---A--- 0 0.1 3.1 42 84
+ 20.631664 3 1 ack 40 ------- 0 3.1 0.1 42 85
- 20.631664 3 1 ack 40 ------- 0 3.1 0.1 42 85
r 20.646696 3 1 ack 40 ------- 0 3.1 0.1 42 85
+ 20.646696 1 0 ack 40 ------- 0 3.1 0.1 42 85
- 20.646696 1 0 ack 40 ------- 0 3.1 0.1 42 85
r 20.661728 1 0 ack 40 ------- 0 3.1 0.1 42 85
+ 21.1 0 1 tcp 1040 ---A--- 0 0.1 3.1 43 86
- 21.1 0 1 tcp 1040 ---A--- 0 0.1 3.1 43 86
r 21.115832 0 1 tcp 1040 ---A--- 0 0.1 3.1 43 86
+ 21.115832 1 3 tcp 1040 ---A--- 0 0.1 3.1 43 86
- 21.115832 1 3 tcp 1040 ---A--- 0 0.1 3.1 43 86
r 21.131664 1 3 tcp 1040 ---A--- 0 0.1 3.1 43 86
+ 21.131664 3 1 ack 40 ------- 0 3.1 0.1 43 87
- 21.131664 3 1 ack 40 ------- 0 3.1 0.1 43 87
r 21.146696 3 1 ack 40 ------- 0 3.1 0.1 43 87
+ 21.146696 1 0 ack 40 ------- 0 3.1 0.1 43 87
- 21.146696 1 0 ack 40 ------- 0 3.1 0.1 43 87
r 21.161728 1 0 ack 40 ------- 0 3.1 0.1 43 87
+ 21.6 0 1 tcp 1040 ---A--- 0 0.1 3.1 44 88
- 21.6 0 1 tcp 1040 ---A--- 0 0.1 3.1 44 88
r 21.615832 0 1 tcp 1040 ---A--- 0 0.1 3.1 44 88
+ 21.615832 1 3 tcp 1040 ---A--- 0 0.1 3.1 44 88
- 21.615832 1 3 tcp 1040 ---A--- 0 0.1 3.1 44 88
r 21.631664 1 3 tcp 1040 ---A--- 0 0.1 3.1 44 88
+ 21.631664 3 1 ack 40 ------- 0 3.1 0.1 44 89
- 21.631664 3 1 ack 40 ------- 0 3.1 0.1 44 89
r 21.646696 3 1 ack 40 ------- 0 3.1 0.1 44 89
+ 21.646696 1 0 ack 40 ------- 0 3.1 0.1 44 89
- 21.646696 1 0 ack 40 ------- 0 3.1 0.1 44 89
r 21.661728 1 0 ack 40 ------- 0 3.1 0.1 44 89
+ 22.1 0 1 tcp 1040 ---A--- 0 0.1 3.1 45 90
- 22.1 0 1 tcp 1040 ---A--- 0 0.1 3.1 45 90
r 22.115832 0 1 tcp 1040 ---A--- 0 0.1 3.1 45 90
+ 22.115832 1 3 tcp 1040 ---A--- 0 0.1 3.1 45 90
- 22.115832 1 3 tcp 1040 ---A--- 0 0.1 3.1 45 90
r 22.131664 1 3 tcp 1040 ---A--- 0 0.1 3.1 45 90
+ 22.131664 3 1 ack 40 ------- 0 3.1 0.1 45 91
- 22.131664 3 1 ack 40 ------- 0 3.1 0.1 45 91
r 22.146696 3 1 ack 40 ------- 0 3.1 0.1 45 91
+ 22.146696 1 0 ack 40 ------- 0 3.1 0.1 45 91
- 22.146696 1 0 ack 40 ------- 0 3.1 0.1 45 91
r 22.161728 1 0 ack 40 ------- 0 3.1 0.1 45 91
+ 22.6 0 1 tcp 1040 ---A--- 0 0.1 3.1 46 92
- 22.6 0 1 tcp 1040 ---A--- 0 0.1 3.1 46 92
r 22.615832 0 1 tcp 1040 ---A--- 0 0.1 3.1 46 92
+ 22.615832 1 3 tcp 1040 ---A--- 0 0.1 3.1 46 92
- 22.615832 1 3 tcp 1040 ---A--- 0 0.1 3.1 46 92
r 22.631664 1 3 tcp 1040 ---A--- 0 0.1 3.1 46 92
+ 22.631664 3 1 ack 40 ------- 0 3.1 0.1 46 93
- 22.631664 3 1 ack 40 ------- 0 3.1 0.1 46 93
r 22.646696 3 1 ack 40 ------- 0 3.1 0.1 46 93
+ 22.646696 1 0 ack 40 ------- 0 3.1 0.1 46 93
- 22.646696 1 0 ack 40 ------- 0 3.1 0.1 46 93
r 22.661728 1 0 ack 40 ------- 0 3.1 0.1 46 93
+ 23.1 0 1 tcp 1040 ---A--- 0 0.1 3.1 47 94
- 23.1 0 1 tcp 1040 ---A--- 0 0.1 3.1 47 94
r 23.115832 0 1 tcp 1040 ---A--- 0 0.1 3.1 47 94
+ 23.115832 1 3 tcp 1040 ---A--- 0 0.1 3.1 47 94
- 23.115832 1 3 tcp 1040 ---A--- 0 0.1 3.1 47 94
r 23.131664 1 3 tcp 1040 ---A--- 0 0.1 3.1 47 94
+ 23.131664 3 1 ack 40 ------- 0 3.1 0.1 47 95
- 23.131664 3 1 ack 40 ------- 0 3.1 0.1 47 95
r 23.146696 3 1 ack 40 ------- 0 3.1 0.1 47 95
+ 23.146696 1 0 ack 40 ------- 0 3.1 0.1 47 95
- 23.146696 1 0 ack 40 ------- 0 3.1 0.1 47 95
r 23.161728 1 0 ack 40 ------- 0 3.1 0.1 47 95
+ 23.6 0 1 tcp 1040 ---A--- 0 0.1 3.1 48 96
- 23.6 0 1 tcp 1040 ---A--- 0 0.1 3.1 48 96
r 23.615832 0 1 tcp 1040 ---A--- 0 0.1 3.1 48 96
+ 23.615832 1 3 tcp 1040 ---A--- 0 0.1 3.1 48 96
- 23.615832 1 3 tcp 1040 ---A--- 0 0.1 3.1 48 96
r 23.631664 1 3 tcp 1040 ---A--- 0 0.1 3.1 48 96
+ 23.631664 3 1 ack 40 ------- 0 3.1 0.1 48 97
- 23.631664 3 1 ack 40 ------- 0 3.1 0.1 48 97
r 23.646696 3 1 ack 40 ------- 0 3.1 0.1 48 97
+ 23.646696 1 0 ack 40 ------- 0 3.1 0.1 48 97
- 23.646696 1 0 ack 40 ------- 0 3.1 0.1 48 97
r 23.661728 1 0 ack 40 ------- 0 3.1 0.1 48 97
+ 24.1 0 1 tcp 1040 ---A--- 0 0.1 3.1 49 98
- 24.1 0 1 tcp 1040 ---A--- 0 0.1 3.1 49 98
r 24.115832 0 1 tcp 1040 ---A--- 0 0.1 3.1 49 98
+ 24.115832 1 3 tcp 1040 ---A--- 0 0.1 3.1 49 98
- 24.115832 1 3 tcp 1040 ---A--- 0 0.1 3.1 49 98
r 24.131664 1 3 tcp 1040 ---A--- 0 0.1 3.1 49 98
+ 24.131664 3 1 ack 40 ------- 0 3.1 0.1 49 99
- 24.131664 3 1 ack 40 ------- 0 3.1 0.1 49 99
r 24.146696 3 1 ack 40 ------- 0 3.1 0.1 49 99
+ 24.146696 1 0 ack 40 ------- 0 3.1 0.1 49 99
- 24.146696 1 0 ack 40 ------- 0 3.1 0.1 49 99
r 24.161728 1 0 ack 40 ------- 0 3.1 0.1 49 99
+ 24.6 0 1 tcp 1040 ---A--- 0 0.1 3.1 50 100
- 24.6 0 1 tcp 1040 ---A--- 0 0.1 3.1 50 100
r 24.615832 0 1 tcp 1040 ---A--- 0 0.1 3.1 50 100
+ 24.615832 1 3 tcp 1040 ---A--- 0 0.1 3.1 50 100
- 24.615832 1 3 tcp 1040 ---A--- 0 0.1 3.1 50 100
r 24.631664 1 3 tcp 1040 ---A--- 0 0.1 3.1 50 100
+ 24.631664 3 1 ack 40 ------- 0 3.1 0.1 50 101
- 24.631664 3 1 ack 40 ------- 0 3.1 0.1 50 101
r 24.646696 3 1 ack 40 ------- 0 3.1 0.1 50 101
+ 24.646696 1 0 ack 40 ------- 0 3.1 0.1 50 101
- 24.646696 1 0 ack 40 ------- 0 3.1 0.1 50 101
r 24.661728 1 0 ack 40 ------- 0 3.1 0.1 50 101
