+ 0.1 0 1 tcp 40 ------- 0 0.1 3.1 0 0
- 0.1 0 1 tcp 40 ------- 0 0.1 3.1 0 0
r 0.250032 0 1 tcp 40 ------- 0 0.1 3.1 0 0
+ 0.250032 1 3 tcp 40 ------- 0 0.1 3.1 0 0
- 0.250032 1 3 tcp 40 ------- 0 0.1 3.1 0 0
r 0.275064 1 3 tcp 40 ------- 0 0.1 3.1 0 0
+ 0.275064 3 1 ack 40 ------- 0 3.1 0.1 0 1
- 0.275064 3 1 ack 40 ------- 0 3.1 0.1 0 1
r 0.300096 3 1 ack 40 ------- 0 3.1 0.1 0 1
+ 0.300096 1 0 ack 40 ------- 0 3.1 0.1 0 1
- 0.300096 1 0 ack 40 ------- 0 3.1 0.1 0 1
r 0.450128 1 0 ack 40 ------- 0 3.1 0.1 0 1
+ 0.450128 0 1 tcp 1040 ------- 0 0.1 3.1 1 2
- 0.450128 0 1 tcp 1040 ------- 0 0.1 3.1 1 2
+ 0.450128 0 1 tcp 1040 ------- 0 0.1 3.1 2 3
- 0.45096 0 1 tcp 1040 ------- 0 0.1 3.1 2 3
r 0.60096 0 1 tcp 1040 ------- 0 0.1 3.1 1 2
+ 0.60096 1 3 tcp 1040 ------- 0 0.1 3.1 1 2
- 0.60096 1 3 tcp 1040 ------- 0 0.1 3.1 1 2
r 0.601792 0 1 tcp 1040 ------- 0 0.1 3.1 2 3
+ 0.601792 1 3 tcp 1040 ------- 0 0.1 3.1 2 3
- 0.601792 1 3 tcp 1040 ------- 0 0.1 3.1 2 3
r 0.626792 1 3 tcp 1040 ------- 0 0.1 3.1 1 2
+ 0.626792 3 1 ack 40 ------- 0 3.1 0.1 1 4
- 0.626792 3 1 ack 40 ------- 0 3.1 0.1 1 4
r 0.627624 1 3 tcp 1040 ------- 0 0.1 3.1 2 3
+ 0.627624 3 1 ack 40 ------- 0 3.1 0.1 2 5
- 0.627624 3 1 ack 40 ------- 0 3.1 0.1 2 5
r 0.651824 3 1 ack 40 ------- 0 3.1 0.1 1 4
+ 0.651824 1 0 ack 40 ------- 0 3.1 0.1 1 4
- 0.651824 1 0 ack 40 ------- 0 3.1 0.1 1 4
r 0.652656 3 1 ack 40 ------- 0 3.1 0.1 2 5
+ 0.652656 1 0 ack 40 ------- 0 3.1 0.1 2 5
- 0.652656 1 0 ack 40 ------- 0 3.1 0.1 2 5
r 0.801856 1 0 ack 40 ------- 0 3.1 0.1 1 4
+ 0.801856 0 1 tcp 1040 ------- 0 0.1 3.1 3 6
- 0.801856 0 1 tcp 1040 ------- 0 0.1 3.1 3 6
+ 0.801856 0 1 tcp 1040 ------- 0 0.1 3.1 4 7
r 0.802688 1 0 ack 40 ------- 0 3.1 0.1 2 5
+ 0.802688 0 1 tcp 1040 ------- 0 0.1 3.1 5 8
+ 0.802688 0 1 tcp 1040 ------- 0 0.1 3.1 6 9
- 0.802688 0 1 tcp 1040 ------- 0 0.1 3.1 4 7
- 0.80352 0 1 tcp 1040 ------- 0 0.1 3.1 5 8
- 0.804352 0 1 tcp 1040 ------- 0 0.1 3.1 6 9
r 0.952688 0 1 tcp 1040 ------- 0 0.1 3.1 3 6
+ 0.952688 1 3 tcp 1040 ------- 0 0.1 3.1 3 6
- 0.952688 1 3 tcp 1040 ------- 0 0.1 3.1 3 6
r 0.95352 0 1 tcp 1040 ------- 0 0.1 3.1 4 7
+ 0.95352 1 3 tcp 1040 ------- 0 0.1 3.1 4 7
- 0.95352 1 3 tcp 1040 ------- 0 0.1 3.1 4 7
r 0.954352 0 1 tcp 1040 ------- 0 0.1 3.1 5 8
+ 0.954352 1 3 tcp 1040 ------- 0 0.1 3.1 5 8
- 0.954352 1 3 tcp 1040 ------- 0 0.1 3.1 5 8
r 0.955184 0 1 tcp 1040 ------- 0 0.1 3.1 6 9
+ 0.955184 1 3 tcp 1040 ------- 0 0.1 3.1 6 9
- 0.955184 1 3 tcp 1040 ------- 0 0.1 3.1 6 9
r 0.97852 1 3 tcp 1040 ------- 0 0.1 3.1 3 6
+ 0.97852 3 1 ack 40 ------- 0 3.1 0.1 3 10
- 0.97852 3 1 ack 40 ------- 0 3.1 0.1 3 10
r 0.979352 1 3 tcp 1040 ------- 0 0.1 3.1 4 7
+ 0.979352 3 1 ack 40 ------- 0 3.1 0.1 4 11
- 0.979352 3 1 ack 40 ------- 0 3.1 0.1 4 11
r 0.980184 1 3 tcp 1040 ------- 0 0.1 3.1 5 8
+ 0.980184 3 1 ack 40 ------- 0 3.1 0.1 5 12
- 0.980184 3 1 ack 40 ------- 0 3.1 0.1 5 12
r 0.981016 1 3 tcp 1040 ------- 0 0.1 3.1 6 9
+ 0.981016 3 1 ack 40 ------- 0 3.1 0.1 6 13
- 0.981016 3 1 ack 40 ------- 0 3.1 0.1 6 13
r 1.003552 3 1 ack 40 ------- 0 3.1 0.1 3 10
+ 1.003552 1 0 ack 40 ------- 0 3.1 0.1 3 10
- 1.003552 1 0 ack 40 ------- 0 3.1 0.1 3 10
r 1.004384 3 1 ack 40 ------- 0 3.1 0.1 4 11
+ 1.004384 1 0 ack 40 ------- 0 3.1 0.1 4 11
- 1.004384 1 0 ack 40 ------- 0 3.1 0.1 4 11
r 1.005216 3 1 ack 40 ------- 0 3.1 0.1 5 12
+ 1.005216 1 0 ack 40 ------- 0 3.1 0.1 5 12
- 1.005216 1 0 ack 40 ------- 0 3.1 0.1 5 12
r 1.006048 3 1 ack 40 ------- 0 3.1 0.1 6 13
+ 1.006048 1 0 ack 40 ------- 0 3.1 0.1 6 13
- 1.006048 1 0 ack 40 ------- 0 3.1 0.1 6 13
