+ 0.1 0 2 tcp 40 ------- 1 0.0 3.0 0 0
- 0.1 0 2 tcp 40 ------- 1 0.0 3.0 0 0
r 0.11032 0 2 tcp 40 ------- 1 0.0 3.0 0 0
+ 0.11032 2 3 tcp 40 ------- 1 0.0 3.0 0 0
- 0.11032 2 3 tcp 40 ------- 1 0.0 3.0 0 0
r 0.12064 2 3 tcp 40 ------- 1 0.0 3.0 0 0
+ 0.12064 3 2 ack 40 ------- 1 3.0 0.0 0 1
- 0.12064 3 2 ack 40 ------- 1 3.0 0.0 0 1
r 0.13096 3 2 ack 40 ------- 1 3.0 0.0 0 1
+ 0.13096 2 0 ack 40 ------- 1 3.0 0.0 0 1
- 0.13096 2 0 ack 40 ------- 1 3.0 0.0 0 1
r 0.14128 2 0 ack 40 ------- 1 3.0 0.0 0 1
+ 0.14128 0 2 tcp 1040 ------- 1 0.0 3.0 1 2
- 0.14128 0 2 tcp 1040 ------- 1 0.0 3.0 1 2
+ 0.14128 0 2 tcp 1040 ------- 1 0.0 3.0 2 3
- 0.1496 0 2 tcp 1040 ------- 1 0.0 3.0 2 3
r 0.1596 0 2 tcp 1040 ------- 1 0.0 3.0 1 2
+ 0.1596 2 3 tcp 1040 ------- 1 0.0 3.0 1 2
- 0.1596 2 3 tcp 1040 ------- 1 0.0 3.0 1 2
r 0.16792 0 2 tcp 1040 ------- 1 0.0 3.0 2 3
+ 0.16792 2 3 tcp 1040 ------- 1 0.0 3.0 2 3
- 0.16792 2 3 tcp 1040 ------- 1 0.0 3.0 2 3
r 0.17792 2 3 tcp 1040 ------- 1 0.0 3.0 1 2
+ 0.17792 3 2 ack 40 ------- 1 3.0 0.0 1 4
- 0.17792 3 2 ack 40 ------- 1 3.0 0.0 1 4
r 0.18624 2 3 tcp 1040 ------- 1 0.0 3.0 2 3
+ 0.18624 3 2 ack 40 ------- 1 3.0 0.0 2 5
- 0.18624 3 2 ack 40 ------- 1 3.0 0.0 2 5
r 0.18824 3 2 ack 40 ------- 1 3.0 0.0 1 4
+ 0.18824 2 0 ack 40 ------- 1 3.0 0.0 1 4
- 0.18824 2 0 ack 40 ------- 1 3.0 0.0 1 4
r 0.19656 3 2 ack 40 ------- 1 3.0 0.0 2 5
+ 0.19656 2 0 ack 40 ------- 1 3.0 0.0 2 5
- 0.19656 2 0 ack 40 ------- 1 3.0 0.0 2 5
r 0.19856 2 0 ack 40 ------- 1 3.0 0.0 1 4
+ 0.19856 0 2 tcp 1040 ------- 1 0.0 3.0 3 6
- 0.19856 0 2 tcp 1040 ------- 1 0.0 3.0 3 6
+ 0.19856 0 2 tcp 1040 ------- 1 0.0 3.0 4 7
r 0.20688 2 0 ack 40 ------- 1 3.0 0.0 2 5
+ 0.20688 0 2 tcp 1040 ------- 1 0.0 3.0 5 8
+ 0.20688 0 2 tcp 1040 ------- 1 0.0 3.0 6 9
- 0.20688 0 2 tcp 1040 ------- 1 0.0 3.0 4 7
- 0.2152 0 2 tcp 1040 ------- 1 0.0 3.0 5 8
r 0.21688 0 2 tcp 1040 ------- 1 0.0 3.0 3 6
+ 0.21688 2 3 tcp 1040 ------- 1 0.0 3.0 3 6
- 0.21688 2 3 tcp 1040 ------- 1 0.0 3.0 3 6
- 0.22352 0 2 tcp 1040 ------- 1 0.0 3.0 6 9
r 0.2252 0 2 tcp 1040 ------- 1 0.0 3.0 4 7
+ 0.2252 2 3 tcp 1040 ------- 1 0.0 3.0 4 7
- 0.2252 2 3 tcp 1040 ------- 1 0.0 3.0 4 7
r 0.23352 0 2 tcp 1040 ------- 1 0.0 3.0 5 8
+ 0.23352 2 3 tcp 1040 ------- 1 0.0 3.0 5 8
- 0.23352 2 3 tcp 1040 ------- 1 0.0 3.0 5 8
r 0.2352 2 3 tcp 1040 ------- 1 0.0 3.0 3 6
+ 0.2352 3 2 ack 40 ------- 1 3.0 0.0 3 10
- 0.2352 3 2 ack 40 ------- 1 3.0 0.0 3 10
r 0.24184 0 2 tcp 1040 ------- 1 0.0 3.0 6 9
+ 0.24184 2 3 tcp 1040 ------- 1 0.0 3.0 6 9
- 0.24184 2 3 tcp 1040 ------- 1 0.0 3.0 6 9
r 0.24352 2 3 tcp 1040 ------- 1 0.0 3.0 4 7
+ 0.24352 3 2 ack 40 ------- 1 3.0 0.0 4 11
- 0.24352 3 2 ack 40 ------- 1 3.0 0.0 4 11
r 0.24552 3 2 ack 40 ------- 1 3.0 0.0 3 10
+ 0.24552 2 0 ack 40 ------- 1 3.0 0.0 3 10
- 0.24552 2 0 ack 40 ------- 1 3.0 0.0 3 10
r 0.25184 2 3 tcp 1040 ------- 1 0.0 3.0 5 8
+ 0.25184 3 2 ack 40 ------- 1 3.0 0.0 5 12
- 0.25184 3 2 ack 40 ------- 1 3.0 0.0 5 12
r 0.25384 3 2 ack 40 ------- 1 3.0 0.0 4 11
+ 0.25384 2 0 ack 40 ------- 1 3.0 0.0 4 11
- 0.25384 2 0 ack 40 ------- 1 3.0 0.0 4 11
r 0.25584 2 0 ack 40 ------- 1 3.0 0.0 3 10
+ 0.25584 0 2 tcp 1040 ------- 1 0.0 3.0 7 13
- 0.25584 0 2 tcp 1040 ------- 1 0.0 3.0 7 13
+ 0.25584 0 2 tcp 1040 ------- 1 0.0 3.0 8 14
r 0.26016 2 3 tcp 1040 ------- 1 0.0 3.0 6 9
+ 0.26016 3 2 ack 40 ------- 1 3.0 0.0 6 15
- 0.26016 3 2 ack 40 ------- 1 3.0 0.0 6 15
r 0.26216 3 2 ack 40 ------- 1 3.0 0.0 5 12
+ 0.26216 2 0 ack 40 ------- 1 3.0 0.0 5 12
- 0.26216 2 0 ack 40 ------- 1 3.0 0.0 5 12
r 0.26416 2 0 ack 40 ------- 1 3.0 0.0 4 11
+ 0.26416 0 2 tcp 1040 ------- 1 0.0 3.0 9 16
+ 0.26416 0 2 tcp 1040 ------- 1 0.0 3.0 10 17
- 0.26416 0 2 tcp 1040 ------- 1 0.0 3.0 8 14
r 0.27048 3 2 ack 40 ------- 1 3.0 0.0 6 15
+ 0.27048 2 0 ack 40 ------- 1 3.0 0.0 6 15
- 0.27048 2 0 ack 40 ------- 1 3.0 0.0 6 15
r 0.27248 2 0 ack 40 ------- 1 3.0 0.0 5 12
+ 0.27248 0 2 tcp 1040 ------- 1 0.0 3.0 11 18
+ 0.27248 0 2 tcp 1040 ------- 1 0.0 3.0 12 19
- 0.27248 0 2 tcp 1040 ------- 1 0.0 3.0 9 16
r 0.27416 0 2 tcp 1040 ------- 1 0.0 3.0 7 13
+ 0.27416 2 3 tcp 1040 ------- 1 0.0 3.0 7 13
- 0.27416 2 3 tcp 1040 ------- 1 0.0 3.0 7 13
r 0.2808 2 0 ack 40 ------- 1 3.0 0.0 6 15
+ 0.2808 0 2 tcp 1040 ------- 1 0.0 3.0 13 20
+ 0.2808 0 2 tcp 1040 ------- 1 0.0 3.0 14 21
- 0.2808 0 2 tcp 1040 ------- 1 0.0 3.0 10 17
r 0.28248 0 2 tcp 1040 ------- 1 0.0 3.0 8 14
+ 0.28248 2 3 tcp 1040 ------- 1 0.0 3.0 8 14
- 0.28248 2 3 tcp 1040 ------- 1 0.0 3.0 8 14
- 0.28912 0 2 tcp 1040 ------- 1 0.0 3.0 11 18
r 0.2908 0 2 tcp 1040 ------- 1 0.0 3.0 9 16
+ 0.2908 2 3 tcp 1040 ------- 1 0.0 3.0 9 16
- 0.2908 2 3 tcp 1040 ------- 1 0.0 3.0 9 16
r 0.29248 2 3 tcp 1040 ------- 1 0.0 3.0 7 13
+ 0.29248 3 2 ack 40 ------- 1 3.0 0.0 7 22
- 0.29248 3 2 ack 40 ------- 1 3.0 0.0 7 22
- 0.29744 0 2 tcp 1040 ------- 1 0.0 3.0 12 19
r 0.29912 0 2 tcp 1040 ------- 1 0.0 3.0 10 17
+ 0.29912 2 3 tcp 1040 ------- 1 0.0 3.0 10 17
- 0.29912 2 3 tcp 1040 ------- 1 0.0 3.0 10 17
r 0.3008 2 3 tcp 1040 ------- 1 0.0 3.0 8 14
+ 0.3008 3 2 ack 40 ------- 1 3.0 0.0 8 23
- 0.3008 3 2 ack 40 ------- 1 3.0 0.0 8 23
r 0.3028 3 2 ack 40 ------- 1 3.0 0.0 7 22
+ 0.3028 2 0 ack 40 ------- 1 3.0 0.0 7 22
- 0.3028 2 0 ack 40 ------- 1 3.0 0.0 7 22
- 0.30576 0 2 tcp 1040 ------- 1 0.0 3.0 13 20
r 0.30744 0 2 tcp 1040 ------- 1 0.0 3.0 11 18
+ 0.30744 2 3 tcp 1040 ------- 1 0.0 3.0 11 18
- 0.30744 2 3 tcp 1040 ------- 1 0.0 3.0 11 18
r 0.30912 2 3 tcp 1040 ------- 1 0.0 3.0 9 16
+ 0.30912 3 2 ack 40 ------- 1 3.0 0.0 9 24
- 0.30912 3 2 ack 40 ------- 1 3.0 0.0 9 24
r 0.31112 3 2 ack 40 ------- 1 3.0 0.0 8 23
+ 0.31112 2 0 ack 40 ------- 1 3.0 0.0 8 23
- 0.31112 2 0 ack 40 ------- 1 3.0 0.0 8 23
r 0.31312 2 0 ack 40 ------- 1 3.0 0.0 7 22
+ 0.31312 0 2 tcp 1040 ------- 1 0.0 3.0 15 25
+ 0.31312 0 2 tcp 1040 ------- 1 0.0 3.0 16 26
- 0.31408 0 2 tcp 1040 ------- 1 0.0 3.0 14 21
r 0.31576 0 2 tcp 1040 ------- 1 0.0 3.0 12 19
+ 0.31576 2 3 tcp 1040 ------- 1 0.0 3.0 12 19
- 0.31576 2 3 tcp 1040 ------- 1 0.0 3.0 12 19
r 0.31744 2 3 tcp 1040 ------- 1 0.0 3.0 10 17
+ 0.31744 3 2 ack 40 ------- 1 3.0 0.0 10 27
- 0.31744 3 2 ack 40 ------- 1 3.0 0.0 10 27
r 0.31944 3 2 ack 40 ------- 1 3.0 0.0 9 24
+ 0.31944 2 0 ack 40 ------- 1 3.0 0.0 9 24
- 0.31944 2 0 ack 40 ------- 1 3.0 0.0 9 24
r 0.32144 2 0 ack 40 ------- 1 3.0 0.0 8 23
+ 0.32144 0 2 tcp 1040 ------- 1 0.0 3.0 17 28
+ 0.32144 0 2 tcp 1040 ------- 1 0.0 3.0 18 29
- 0.3224 0 2 tcp 1040 ------- 1 0.0 3.0 15 25
r 0.32408 0 2 tcp 1040 ------- 1 0.0 3.0 13 20
+ 0.32408 2 3 tcp 1040 ------- 1 0.0 3.0 13 20
- 0.32408 2 3 tcp 1040 ------- 1 0.0 3.0 13 20
r 0.32576 2 3 tcp 1040 ------- 1 0.0 3.0 11 18
+ 0.32576 3 2 ack 40 ------- 1 3.0 0.0 11 30
- 0.32576 3 2 ack 40 ------- 1 3.0 0.0 11 30
r 0.32776 3 2 ack 40 ------- 1 3.0 0.0 10 27
+ 0.32776 2 0 ack 40 ------- 1 3.0 0.0 10 27
- 0.32776 2 0 ack 40 ------- 1 3.0 0.0 10 27
r 0.32976 2 0 ack 40 ------- 1 3.0 0.0 9 24
+ 0.32976 0 2 tcp 1040 ------- 1 0.0 3.0 19 31
+ 0.32976 0 2 tcp 1040 ------- 1 0.0 3.0 20 32
- 0.33072 0 2 tcp 1040 ------- 1 0.0 3.0 16 26
r 0.3324 0 2 tcp 1040 ------- 1 0.0 3.0 14 21
+ 0.3324 2 3 tcp 1040 ------- 1 0.0 3.0 14 21
- 0.3324 2 3 tcp 1040 ------- 1 0.0 3.0 14 21
r 0.33408 2 3 tcp 1040 ------- 1 0.0 3.0 12 19
+ 0.33408 3 2 ack 40 ------- 1 3.0 0.0 12 33
- 0.33408 3 2 ack 40 ------- 1 3.0 0.0 12 33
r 0.33608 3 2 ack 40 ------- 1 3.0 0.0 11 30
+ 0.33608 2 0 ack 40 ------- 1 3.0 0.0 11 30
- 0.33608 2 0 ack 40 ------- 1 3.0 0.0 11 30
r 0.33808 2 0 ack 40 ------- 1 3.0 0.0 10 27
+ 0.33808 0 2 tcp 1040 ------- 1 0.0 3.0 21 34
+ 0.33808 0 2 tcp 1040 ------- 1 0.0 3.0 22 35
- 0.33904 0 2 tcp 1040 ------- 1 0.0 3.0 17 28
r 0.34072 0 2 tcp 1040 ------- 1 0.0 3.0 15 25
+ 0.34072 2 3 tcp 1040 ------- 1 0.0 3.0 15 25
- 0.34072 2 3 tcp 1040 ------- 1 0.0 3.0 15 25
r 0.3424 2 3 tcp 1040 ------- 1 0.0 3.0 13 20
+ 0.3424 3 2 ack 40 ------- 1 3.0 0.0 13 36
- 0.3424 3 2 ack 40 ------- 1 3.0 0.0 13 36
r 0.3444 3 2 ack 40 ------- 1 3.0 0.0 12 33
+ 0.3444 2 0 ack 40 ------- 1 3.0 0.0 12 33
- 0.3444 2 0 ack 40 ------- 1 3.0 0.0 12 33
r 0.3464 2 0 ack 40 ------- 1 3.0 0.0 11 30
+ 0.3464 0 2 tcp 1040 ------- 1 0.0 3.0 23 37
+ 0.3464 0 2 tcp 1040 ------- 1 0.0 3.0 24 38
- 0.34736 0 2 tcp 1040 ------- 1 0.0 3.0 18 29
r 0.34904 0 2 tcp 1040 ------- 1 0.0 3.0 16 26
+ 0.34904 2 3 tcp 1040 ------- 1 0.0 3.0 16 26
- 0.34904 2 3 tcp 1040 ------- 1 0.0 3.0 16 26
r 0.35072 2 3 tcp 1040 ------- 1 0.0 3.0 14 21
+ 0.35072 3 2 ack 40 ------- 1 3.0 0.0 14 39
- 0.35072 3 2 ack 40 ------- 1 3.0 0.0 14 39
r 0.35272 3 2 ack 40 ------- 1 3.0 0.0 13 36
+ 0.35272 2 0 ack 40 ------- 1 3.0 0.0 13 36
- 0.35272 2 0 ack 40 ------- 1 3.0 0.0 13 36
r 0.35472 2 0 ack 40 ------- 1 3.0 0.0 12 33
+ 0.35472 0 2 tcp 1040 ------- 1 0.0 3.0 25 40
+ 0.35472 0 2 tcp 1040 ------- 1 0.0 3.0 26 41
- 0.35568 0 2 tcp 1040 ------- 1 0.0 3.0 19 31
r 0.35736 0 2 tcp 1040 ------- 1 0.0 3.0 17 28
+ 0.35736 2 3 tcp 1040 ------- 1 0.0 3.0 17 28
- 0.35736 2 3 tcp 1040 ------- 1 0.0 3.0 17 28
r 0.35904 2 3 tcp 1040 ------- 1 0.0 3.0 15 25
+ 0.35904 3 2 ack 40 ------- 1 3.0 0.0 15 42
- 0.35904 3 2 ack 40 ------- 1 3.0 0.0 15 42
r 0.36104 3 2 ack 40 ------- 1 3.0 0.0 14 39
+ 0.36104 2 0 ack 40 ------- 1 3.0 0.0 14 39
- 0.36104 2 0 ack 40 ------- 1 3.0 0.0 14 39
r 0.36304 2 0 ack 40 ------- 1 3.0 0.0 13 36
+ 0.36304 0 2 tcp 1040 ------- 1 0.0 3.0 27 43
+ 0.36304 0 2 tcp 1040 ------- 1 0.0 3.0 28 44
- 0.364 0 2 tcp 1040 ------- 1 0.0 3.0 20 32
r 0.36568 0 2 tcp 1040 ------- 1 0.0 3.0 18 29
+ 0.36568 2 3 tcp 1040 ------- 1 0.0 3.0 18 29
- 0.36568 2 3 tcp 1040 ------- 1 0.0 3.0 18 29
r 0.36736 2 3 tcp 1040 ------- 1 0.0 3.0 16 26
+ 0.36736 3 2 ack 40 ------- 1 3.0 0.0 16 45
- 0.36736 3 2 ack 40 ------- 1 3.0 0.0 16 45
r 0.36936 3 2 ack 40 ------- 1 3.0 0.0 15 42
+ 0.36936 2 0 ack 40 ------- 1 3.0 0.0 15 42
- 0.36936 2 0 ack 40 ------- 1 3.0 0.0 15 42
r 0.37136 2 0 ack 40 ------- 1 3.0 0.0 14 39
+ 0.37136 0 2 tcp 1040 ------- 1 0.0 3.0 29 46
+ 0.37136 0 2 tcp 1040 ------- 1 0.0 3.0 30 47
- 0.37232 0 2 tcp 1040 ------- 1 0.0 3.0 21 34
r 0.374 0 2 tcp 1040 ------- 1 0.0 3.0 19 31
+ 0.374 2 3 tcp 1040 ------- 1 0.0 3.0 19 31
- 0.374 2 3 tcp 1040 ------- 1 0.0 3.0 19 31
r 0.37568 2 3 tcp 1040 ------- 1 0.0 3.0 17 28
+ 0.37568 3 2 ack 40 ------- 1 3.0 0.0 17 48
- 0.37568 3 2 ack 40 ------- 1 3.0 0.0 17 48
r 0.37768 3 2 ack 40 ------- 1 3.0 0.0 16 45
+ 0.37768 2 0 ack 40 ------- 1 3.0 0.0 16 45
- 0.37768 2 0 ack 40 ------- 1 3.0 0.0 16 45
r 0.37968 2 0 ack 40 ------- 1 3.0 0.0 15 42
+ 0.37968 0 2 tcp 1040 ------- 1 0.0 3.0 31 49
+ 0.37968 0 2 tcp 1040 ------- 1 0.0 3.0 32 50
- 0.38064 0 2 tcp 1040 ------- 1 0.0 3.0 22 35
r 0.38232 0 2 tcp 1040 ------- 1 0.0 3.0 20 32
+ 0.38232 2 3 tcp 1040 ------- 1 0.0 3.0 20 32
- 0.38232 2 3 tcp 1040 ------- 1 0.0 3.0 20 32
r 0.384 2 3 tcp 1040 ------- 1 0.0 3.0 18 29
+ 0.384 3 2 ack 40 ------- 1 3.0 0.0 18 51
- 0.384 3 2 ack 40 ------- 1 3.0 0.0 18 51
r 0.386 3 2 ack 40 ------- 1 3.0 0.0 17 48
+ 0.386 2 0 ack 40 ------- 1 3.0 0.0 17 48
- 0.386 2 0 ack 40 ------- 1 3.0 0.0 17 48
r 0.388 2 0 ack 40 ------- 1 3.0 0.0 16 45
+ 0.388 0 2 tcp 1040 ------- 1 0.0 3.0 33 52
+ 0.388 0 2 tcp 1040 ------- 1 0.0 3.0 34 53
- 0.38896 0 2 tcp 1040 ------- 1 0.0 3.0 23 37
r 0.39064 0 2 tcp 1040 ------- 1 0.0 3.0 21 34
+ 0.39064 2 3 tcp 1040 ------- 1 0.0 3.0 21 34
- 0.39064 2 3 tcp 1040 ------- 1 0.0 3.0 21 34
r 0.39232 2 3 tcp 1040 ------- 1 0.0 3.0 19 31
+ 0.39232 3 2 ack 40 ------- 1 3.0 0.0 19 54
- 0.39232 3 2 ack 40 ------- 1 3.0 0.0 19 54
r 0.39432 3 2 ack 40 ------- 1 3.0 0.0 18 51
+ 0.39432 2 0 ack 40 ------- 1 3.0 0.0 18 51
- 0.39432 2 0 ack 40 ------- 1 3.0 0.0 18 51
r 0.39632 2 0 ack 40 ------- 1 3.0 0.0 17 48
+ 0.39632 0 2 tcp 1040 ------- 1 0.0 3.0 35 55
+ 0.39632 0 2 tcp 1040 ------- 1 0.0 3.0 36 56
- 0.39728 0 2 tcp 1040 ------- 1 0.0 3.0 24 38
r 0.39896 0 2 tcp 1040 ------- 1 0.0 3.0 22 35
+ 0.39896 2 3 tcp 1040 ------- 1 0.0 3.0 22 35
- 0.39896 2 3 tcp 1040 ------- 1 0.0 3.0 22 35
r 0.40064 2 3 tcp 1040 ------- 1 0.0 3.0 20 32
+ 0.40064 3 2 ack 40 ------- 1 3.0 0.0 20 57
- 0.40064 3 2 ack 40 ------- 1 3.0 0.0 20 57
r 0.40264 3 2 ack 40 ------- 1 3.0 0.0 19 54
+ 0.40264 2 0 ack 40 ------- 1 3.0 0.0 19 54
- 0.40264 2 0 ack 40 ------- 1 3.0 0.0 19 54
r 0.40464 2 0 ack 40 ------- 1 3.0 0.0 18 51
+ 0.40464 0 2 tcp 1040 ------- 1 0.0 3.0 37 58
+ 0.40464 0 2 tcp 1040 ------- 1 0.0 3.0 38 59
- 0.4056 0 2 tcp 1040 ------- 1 0.0 3.0 25 40
r 0.40728 0 2 tcp 1040 ------- 1 0.0 3.0 23 37
+ 0.40728 2 3 tcp 1040 ------- 1 0.0 3.0 23 37
- 0.40728 2 3 tcp 1040 ------- 1 0.0 3.0 23 37
r 0.40896 2 3 tcp 1040 ------- 1 0.0 3.0 21 34
+ 0.40896 3 2 ack 40 ------- 1 3.0 0.0 21 60
- 0.40896 3 2 ack 40 ------- 1 3.0 0.0 21 60
r 0.41096 3 2 ack 40 ------- 1 3.0 0.0 20 57
+ 0.41096 2 0 ack 40 ------- 1 3.0 0.0 20 57
- 0.41096 2 0 ack 40 ------- 1 3.0 0.0 20 57
r 0.41296 2 0 ack 40 ------- 1 3.0 0.0 19 54
+ 0.41296 0 2 tcp 1040 ------- 1 0.0 3.0 39 61
- 0.41392 0 2 tcp 1040 ------- 1 0.0 3.0 26 41
r 0.4156 0 2 tcp 1040 ------- 1 0.0 3.0 24 38
+ 0.4156 2 3 tcp 1040 ------- 1 0.0 3.0 24 38
- 0.4156 2 3 tcp 1040 ------- 1 0.0 3.0 24 38
r 0.41728 2 3 tcp 1040 ------- 1 0.0 3.0 22 35
+ 0.41728 3 2 ack 40 ------- 1 3.0 0.0 22 62
- 0.41728 3 2 ack 40 ------- 1 3.0 0.0 22 62
r 0.41928 3 2 ack 40 ------- 1 3.0 0.0 21 60
+ 0.41928 2 0 ack 40 ------- 1 3.0 0.0 21 60
- 0.41928 2 0 ack 40 ------- 1 3.0 0.0 21 60
r 0.42128 2 0 ack 40 ------- 1 3.0 0.0 20 57
+ 0.42128 0 2 tcp 1040 ------- 1 0.0 3.0 40 63
- 0.42224 0 2 tcp 1040 ------- 1 0.0 3.0 27 43
r 0.42392 0 2 tcp 1040 ------- 1 0.0 3.0 25 40
+ 0.42392 2 3 tcp 1040 ------- 1 0.0 3.0 25 40
- 0.42392 2 3 tcp 1040 ------- 1 0.0 3.0 25 40
r 0.4256 2 3 tcp 1040 ------- 1 0.0 3.0 23 37
+ 0.4256 3 2 ack 40 ------- 1 3.0 0.0 23 64
- 0.4256 3 2 ack 40 ------- 1 3.0 0.0 23 64
r 0.4276 3 2 ack 40 ------- 1 3.0 0.0 22 62
+ 0.4276 2 0 ack 40 ------- 1 3.0 0.0 22 62
- 0.4276 2 0 ack 40 ------- 1 3.0 0.0 22 62
r 0.4296 2 0 ack 40 ------- 1 3.0 0.0 21 60
+ 0.4296 0 2 tcp 1040 ------- 1 0.0 3.0 41 65
- 0.43056 0 2 tcp 1040 ------- 1 0.0 3.0 28 44
r 0.43224 0 2 tcp 1040 ------- 1 0.0 3.0 26 41
+ 0.43224 2 3 tcp 1040 ------- 1 0.0 3.0 26 41
- 0.43224 2 3 tcp 1040 ------- 1 0.0 3.0 26 41
r 0.43392 2 3 tcp 1040 ------- 1 0.0 3.0 24 38
+ 0.43392 3 2 ack 40 ------- 1 3.0 0.0 24 66
- 0.43392 3 2 ack 40 ------- 1 3.0 0.0 24 66
r 0.43592 3 2 ack 40 ------- 1 3.0 0.0 23 64
+ 0.43592 2 0 ack 40 ------- 1 3.0 0.0 23 64
- 0.43592 2 0 ack 40 ------- 1 3.0 0.0 23 64
r 0.43792 2 0 ack 40 ------- 1 3.0 0.0 22 62
+ 0.43792 0 2 tcp 1040 ------- 1 0.0 3.0 42 67
- 0.43888 0 2 tcp 1040 ------- 1 0.0 3.0 29 46
r 0.44056 0 2 tcp 1040 ------- 1 0.0 3.0 27 43
+ 0.44056 2 3 tcp 1040 ------- 1 0.0 3.0 27 43
- 0.44056 2 3 tcp 1040 ------- 1 0.0 3.0 27 43
r 0.44224 2 3 tcp 1040 ------- 1 0.0 3.0 25 40
+ 0.44224 3 2 ack 40 ------- 1 3.0 0.0 25 68
- 0.44224 3 2 ack 40 ------- 1 3.0 0.0 25 68
r 0.44424 3 2 ack 40 ------- 1 3.0 0.0 24 66
+ 0.44424 2 0 ack 40 ------- 1 3.0 0.0 24 66
- 0.44424 2 0 ack 40 ------- 1 3.0 0.0 24 66
r 0.44624 2 0 ack 40 ------- 1 3.0 0.0 23 64
+ 0.44624 0 2 tcp 1040 ------- 1 0.0 3.0 43 69
- 0.4472 0 2 tcp 1040 ------- 1 0.0 3.0 30 47
r 0.44888 0 2 tcp 1040 ------- 1 0.0 3.0 28 44
+ 0.44888 2 3 tcp 1040 ------- 1 0.0 3.0 28 44
- 0.44888 2 3 tcp 1040 ------- 1 0.0 3.0 28 44
r 0.45056 2 3 tcp 1040 ------- 1 0.0 3.0 26 41
+ 0.45056 3 2 ack 40 ------- 1 3.0 0.0 26 70
- 0.45056 3 2 ack 40 ------- 1 3.0 0.0 26 70
r 0.45256 3 2 ack 40 ------- 1 3.0 0.0 25 68
+ 0.45256 2 0 ack 40 ------- 1 3.0 0.0 25 68
- 0.45256 2 0 ack 40 ------- 1 3.0 0.0 25 68
r 0.45456 2 0 ack 40 ------- 1 3.0 0.0 24 66
+ 0.45456 0 2 tcp 1040 ------- 1 0.0 3.0 44 71
- 0.45552 0 2 tcp 1040 ------- 1 0.0 3.0 31 49
r 0.4572 0 2 tcp 1040 ------- 1 0.0 3.0 29 46
+ 0.4572 2 3 tcp 1040 ------- 1 0.0 3.0 29 46
- 0.4572 2 3 tcp 1040 ------- 1 0.0 3.0 29 46
r 0.45888 2 3 tcp 1040 ------- 1 0.0 3.0 27 43
+ 0.45888 3 2 ack 40 ------- 1 3.0 0.0 27 72
- 0.45888 3 2 ack 40 ------- 1 3.0 0.0 27 72
r 0.46088 3 2 ack 40 ------- 1 3.0 0.0 26 70
+ 0.46088 2 0 ack 40 ------- 1 3.0 0.0 26 70
- 0.46088 2 0 ack 40 ------- 1 3.0 0.0 26 70
r 0.46288 2 0 ack 40 ------- 1 3.0 0.0 25 68
+ 0.46288 0 2 tcp 1040 ------- 1 0.0 3.0 45 73
- 0.46384 0 2 tcp 1040 ------- 1 0.0 3.0 32 50
r 0.46552 0 2 tcp 1040 ------- 1 0.0 3.0 30 47
+ 0.46552 2 3 tcp 1040 ------- 1 0.0 3.0 30 47
- 0.46552 2 3 tcp 1040 ------- 1 0.0 3.0 30 47
r 0.4672 2 3 tcp 1040 ------- 1 0.0 3.0 28 44
+ 0.4672 3 2 ack 40 ------- 1 3.0 0.0 28 74
- 0.4672 3 2 ack 40 ------- 1 3.0 0.0 28 74
r 0.4692 3 2 ack 40 ------- 1 3.0 0.0 27 72
+ 0.4692 2 0 ack 40 ------- 1 3.0 0.0 27 72
- 0.4692 2 0 ack 40 ------- 1 3.0 0.0 27 72
r 0.4712 2 0 ack 40 ------- 1 3.0 0.0 26 70
+ 0.4712 0 2 tcp 1040 ------- 1 0.0 3.0 46 75
- 0.47216 0 2 tcp 1040 ------- 1 0.0 3.0 33 52
r 0.47384 0 2 tcp 1040 ------- 1 0.0 3.0 31 49
+ 0.47384 2 3 tcp 1040 ------- 1 0.0 3.0 31 49
- 0.47384 2 3 tcp 1040 ------- 1 0.0 3.0 31 49
r 0.47552 2 3 tcp 1040 ------- 1 0.0 3.0 29 46
+ 0.47552 3 2 ack 40 ------- 1 3.0 0.0 29 76
- 0.47552 3 2 ack 40 ------- 1 3.0 0.0 29 76
r 0.47752 3 2 ack 40 ------- 1 3.0 0.0 28 74
+ 0.47752 2 0 ack 40 ------- 1 3.0 0.0 28 74
- 0.47752 2 0 ack 40 ------- 1 3.0 0.0 28 74
r 0.47952 2 0 ack 40 ------- 1 3.0 0.0 27 72
+ 0.47952 0 2 tcp 1040 ------- 1 0.0 3.0 47 77
- 0.48048 0 2 tcp 1040 ------- 1 0.0 3.0 34 53
r 0.48216 0 2 tcp 1040 ------- 1 0.0 3.0 32 50
+ 0.48216 2 3 tcp 1040 ------- 1 0.0 3.0 32 50
- 0.48216 2 3 tcp 1040 ------- 1 0.0 3.0 32 50
r 0.48384 2 3 tcp 1040 ------- 1 0.0 3.0 30 47
+ 0.48384 3 2 ack 40 ------- 1 3.0 0.0 30 78
- 0.48384 3 2 ack 40 ------- 1 3.0 0.0 30 78
r 0.48584 3 2 ack 40 ------- 1 3.0 0.0 29 76
+ 0.48584 2 0 ack 40 ------- 1 3.0 0.0 29 76
- 0.48584 2 0 ack 40 ------- 1 3.0 0.0 29 76
r 0.48784 2 0 ack 40 ------- 1 3.0 0.0 28 74
+ 0.48784 0 2 tcp 1040 ------- 1 0.0 3.0 48 79
- 0.4888 0 2 tcp 1040 ------- 1 0.0 3.0 35 55
r 0.49048 0 2 tcp 1040 ------- 1 0.0 3.0 33 52
+ 0.49048 2 3 tcp 1040 ------- 1 0.0 3.0 33 52
- 0.49048 2 3 tcp 1040 ------- 1 0.0 3.0 33 52
r 0.49216 2 3 tcp 1040 ------- 1 0.0 3.0 31 49
+ 0.49216 3 2 ack 40 ------- 1 3.0 0.0 31 80
- 0.49216 3 2 ack 40 ------- 1 3.0 0.0 31 80
r 0.49416 3 2 ack 40 ------- 1 3.0 0.0 30 78
+ 0.49416 2 0 ack 40 ------- 1 3.0 0.0 30 78
- 0.49416 2 0 ack 40 ------- 1 3.0 0.0 30 78
r 0.49616 2 0 ack 40 ------- 1 3.0 0.0 29 76
+ 0.49616 0 2 tcp 1040 ------- 1 0.0 3.0 49 81
- 0.49712 0 2 tcp 1040 ------- 1 0.0 3.0 36 56
r 0.4988 0 2 tcp 1040 ------- 1 0.0 3.0 34 53
+ 0.4988 2 3 tcp 1040 ------- 1 0.0 3.0 34 53
- 0.4988 2 3 tcp 1040 ------- 1 0.0 3.0 34 53
+ 0.5 1 2 cbr 210 ------- 2 1.0 3.1 0 82
- 0.5 1 2 cbr 210 ------- 2 1.0 3.1 0 82
r 0.50048 2 3 tcp 1040 ------- 1 0.0 3.0 32 50
+ 0.50048 3 2 ack 40 ------- 1 3.0 0.0 32 83
- 0.50048 3 2 ack 40 ------- 1 3.0 0.0 32 83
r 0.50248 3 2 ack 40 ------- 1 3.0 0.0 31 80
+ 0.50248 2 0 ack 40 ------- 1 3.0 0.0 31 80
- 0.50248 2 0 ack 40 ------- 1 3.0 0.0 31 80
+ 0.50375 1 2 cbr 210 ------- 2 1.0 3.1 1 84
- 0.50375 1 2 cbr 210 ------- 2 1.0 3.1 1 84
r 0.50448 2 0 ack 40 ------- 1 3.0 0.0 30 78
+ 0.50448 0 2 tcp 1040 ------- 1 0.0 3.0 50 85
- 0.50544 0 2 tcp 1040 ------- 1 0.0 3.0 37 58
r 0.50712 0 2 tcp 1040 ------- 1 0.0 3.0 35 55
+ 0.50712 2 3 tcp 1040 ------- 1 0.0 3.0 35 55
- 0.50712 2 3 tcp 1040 ------- 1 0.0 3.0 35 55
+ 0.5075 1 2 cbr 210 ------- 2 1.0 3.1 2 86
- 0.5075 1 2 cbr 210 ------- 2 1.0 3.1 2 86
r 0.5088 2 3 tcp 1040 ------- 1 0.0 3.0 33 52
+ 0.5088 3 2 ack 40 ------- 1 3.0 0.0 33 87
- 0.5088 3 2 ack 40 ------- 1 3.0 0.0 33 87
r 0.5108 3 2 ack 40 ------- 1 3.0 0.0 32 83
+ 0.5108 2 0 ack 40 ------- 1 3.0 0.0 32 83
- 0.5108 2 0 ack 40 ------- 1 3.0 0.0 32 83
+ 0.51125 1 2 cbr 210 ------- 2 1.0 3.1 3 88
- 0.51125 1 2 cbr 210 ------- 2 1.0 3.1 3 88
r 0.51168 1 2 cbr 210 ------- 2 1.0 3.1 0 82
+ 0.51168 2 3 cbr 210 ------- 2 1.0 3.1 0 82
r 0.5128 2 0 ack 40 ------- 1 3.0 0.0 31 80
+ 0.5128 0 2 tcp 1040 ------- 1 0.0 3.0 51 89
- 0.51376 0 2 tcp 1040 ------- 1 0.0 3.0 38 59
+ 0.515 1 2 cbr 210 ------- 2 1.0 3.1 4 90
- 0.515 1 2 cbr 210 ------- 2 1.0 3.1 4 90
r 0.51543 1 2 cbr 210 ------- 2 1.0 3.1 1 84
+ 0.51543 2 3 cbr 210 ------- 2 1.0 3.1 1 84
r 0.51544 0 2 tcp 1040 ------- 1 0.0 3.0 36 56
+ 0.51544 2 3 tcp 1040 ------- 1 0.0 3.0 36 56
- 0.51544 2 3 cbr 210 ------- 2 1.0 3.1 0 82
r 0.51712 2 3 tcp 1040 ------- 1 0.0 3.0 34 53
+ 0.51712 3 2 ack 40 ------- 1 3.0 0.0 34 91
- 0.51712 3 2 ack 40 ------- 1 3.0 0.0 34 91
- 0.51712 2 3 cbr 210 ------- 2 1.0 3.1 1 84
+ 0.51875 1 2 cbr 210 ------- 2 1.0 3.1 5 92
- 0.51875 1 2 cbr 210 ------- 2 1.0 3.1 5 92
- 0.5188 2 3 tcp 1040 ------- 1 0.0 3.0 36 56
r 0.51912 3 2 ack 40 ------- 1 3.0 0.0 33 87
+ 0.51912 2 0 ack 40 ------- 1 3.0 0.0 33 87
- 0.51912 2 0 ack 40 ------- 1 3.0 0.0 33 87
r 0.51918 1 2 cbr 210 ------- 2 1.0 3.1 2 86
+ 0.51918 2 3 cbr 210 ------- 2 1.0 3.1 2 86
r 0.52112 2 0 ack 40 ------- 1 3.0 0.0 32 83
+ 0.52112 0 2 tcp 1040 ------- 1 0.0 3.0 52 93
- 0.52208 0 2 tcp 1040 ------- 1 0.0 3.0 39 61
+ 0.5225 1 2 cbr 210 ------- 2 1.0 3.1 6 94
- 0.5225 1 2 cbr 210 ------- 2 1.0 3.1 6 94
r 0.52293 1 2 cbr 210 ------- 2 1.0 3.1 3 88
+ 0.52293 2 3 cbr 210 ------- 2 1.0 3.1 3 88
r 0.52376 0 2 tcp 1040 ------- 1 0.0 3.0 37 58
+ 0.52376 2 3 tcp 1040 ------- 1 0.0 3.0 37 58
r 0.52544 2 3 tcp 1040 ------- 1 0.0 3.0 35 55
+ 0.52544 3 2 ack 40 ------- 1 3.0 0.0 35 95
- 0.52544 3 2 ack 40 ------- 1 3.0 0.0 35 95
+ 0.52625 1 2 cbr 210 ------- 2 1.0 3.1 7 96
- 0.52625 1 2 cbr 210 ------- 2 1.0 3.1 7 96
r 0.52668 1 2 cbr 210 ------- 2 1.0 3.1 4 90
+ 0.52668 2 3 cbr 210 ------- 2 1.0 3.1 4 90
r 0.52712 2 3 cbr 210 ------- 2 1.0 3.1 0 82
- 0.52712 2 3 cbr 210 ------- 2 1.0 3.1 2 86
r 0.52744 3 2 ack 40 ------- 1 3.0 0.0 34 91
+ 0.52744 2 0 ack 40 ------- 1 3.0 0.0 34 91
- 0.52744 2 0 ack 40 ------- 1 3.0 0.0 34 91
r 0.5288 2 3 cbr 210 ------- 2 1.0 3.1 1 84
- 0.5288 2 3 cbr 210 ------- 2 1.0 3.1 3 88
r 0.52944 2 0 ack 40 ------- 1 3.0 0.0 33 87
+ 0.52944 0 2 tcp 1040 ------- 1 0.0 3.0 53 97
+ 0.53 1 2 cbr 210 ------- 2 1.0 3.1 8 98
- 0.53 1 2 cbr 210 ------- 2 1.0 3.1 8 98
- 0.5304 0 2 tcp 1040 ------- 1 0.0 3.0 40 63
r 0.53043 1 2 cbr 210 ------- 2 1.0 3.1 5 92
+ 0.53043 2 3 cbr 210 ------- 2 1.0 3.1 5 92
- 0.53048 2 3 tcp 1040 ------- 1 0.0 3.0 37 58
r 0.53208 0 2 tcp 1040 ------- 1 0.0 3.0 38 59
+ 0.53208 2 3 tcp 1040 ------- 1 0.0 3.0 38 59
+ 0.53375 1 2 cbr 210 ------- 2 1.0 3.1 9 99
- 0.53375 1 2 cbr 210 ------- 2 1.0 3.1 9 99
r 0.53418 1 2 cbr 210 ------- 2 1.0 3.1 6 94
+ 0.53418 2 3 cbr 210 ------- 2 1.0 3.1 6 94
r 0.53576 3 2 ack 40 ------- 1 3.0 0.0 35 95
+ 0.53576 2 0 ack 40 ------- 1 3.0 0.0 35 95
- 0.53576 2 0 ack 40 ------- 1 3.0 0.0 35 95
r 0.53712 2 3 tcp 1040 ------- 1 0.0 3.0 36 56
+ 0.53712 3 2 ack 40 ------- 1 3.0 0.0 36 100
- 0.53712 3 2 ack 40 ------- 1 3.0 0.0 36 100
+ 0.5375 1 2 cbr 210 ------- 2 1.0 3.1 10 101
- 0.5375 1 2 cbr 210 ------- 2 1.0 3.1 10 101
r 0.53776 2 0 ack 40 ------- 1 3.0 0.0 34 91
+ 0.53776 0 2 tcp 1040 ------- 1 0.0 3.0 54 102
r 0.53793 1 2 cbr 210 ------- 2 1.0 3.1 7 96
+ 0.53793 2 3 cbr 210 ------- 2 1.0 3.1 7 96
- 0.53872 0 2 tcp 1040 ------- 1 0.0 3.0 41 65
r 0.5388 2 3 cbr 210 ------- 2 1.0 3.1 2 86
- 0.5388 2 3 cbr 210 ------- 2 1.0 3.1 4 90
r 0.5404 0 2 tcp 1040 ------- 1 0.0 3.0 39 61
+ 0.5404 2 3 tcp 1040 ------- 1 0.0 3.0 39 61
r 0.54048 2 3 cbr 210 ------- 2 1.0 3.1 3 88
- 0.54048 2 3 cbr 210 ------- 2 1.0 3.1 5 92
+ 0.54125 1 2 cbr 210 ------- 2 1.0 3.1 11 103
- 0.54125 1 2 cbr 210 ------- 2 1.0 3.1 11 103
r 0.54168 1 2 cbr 210 ------- 2 1.0 3.1 8 98
+ 0.54168 2 3 cbr 210 ------- 2 1.0 3.1 8 98
- 0.54216 2 3 tcp 1040 ------- 1 0.0 3.0 38 59
+ 0.545 1 2 cbr 210 ------- 2 1.0 3.1 12 104
- 0.545 1 2 cbr 210 ------- 2 1.0 3.1 12 104
r 0.54543 1 2 cbr 210 ------- 2 1.0 3.1 9 99
+ 0.54543 2 3 cbr 210 ------- 2 1.0 3.1 9 99
r 0.54608 2 0 ack 40 ------- 1 3.0 0.0 35 95
+ 0.54608 0 2 tcp 1040 ------- 1 0.0 3.0 55 105
- 0.54704 0 2 tcp 1040 ------- 1 0.0 3.0 42 67
r 0.54744 3 2 ack 40 ------- 1 3.0 0.0 36 100
+ 0.54744 2 0 ack 40 ------- 1 3.0 0.0 36 100
- 0.54744 2 0 ack 40 ------- 1 3.0 0.0 36 100
r 0.54872 0 2 tcp 1040 ------- 1 0.0 3.0 40 63
+ 0.54872 2 3 tcp 1040 ------- 1 0.0 3.0 40 63
+ 0.54875 1 2 cbr 210 ------- 2 1.0 3.1 13 106
- 0.54875 1 2 cbr 210 ------- 2 1.0 3.1 13 106
r 0.5488 2 3 tcp 1040 ------- 1 0.0 3.0 37 58
+ 0.5488 3 2 ack 40 ------- 1 3.0 0.0 37 107
- 0.5488 3 2 ack 40 ------- 1 3.0 0.0 37 107
r 0.54918 1 2 cbr 210 ------- 2 1.0 3.1 10 101
+ 0.54918 2 3 cbr 210 ------- 2 1.0 3.1 10 101
r 0.55048 2 3 cbr 210 ------- 2 1.0 3.1 4 90
- 0.55048 2 3 cbr 210 ------- 2 1.0 3.1 6 94
r 0.55216 2 3 cbr 210 ------- 2 1.0 3.1 5 92
- 0.55216 2 3 cbr 210 ------- 2 1.0 3.1 7 96
+ 0.5525 1 2 cbr 210 ------- 2 1.0 3.1 14 108
- 0.5525 1 2 cbr 210 ------- 2 1.0 3.1 14 108
r 0.55293 1 2 cbr 210 ------- 2 1.0 3.1 11 103
+ 0.55293 2 3 cbr 210 ------- 2 1.0 3.1 11 103
- 0.55384 2 3 tcp 1040 ------- 1 0.0 3.0 39 61
- 0.55536 0 2 tcp 1040 ------- 1 0.0 3.0 43 69
+ 0.55625 1 2 cbr 210 ------- 2 1.0 3.1 15 109
- 0.55625 1 2 cbr 210 ------- 2 1.0 3.1 15 109
r 0.55668 1 2 cbr 210 ------- 2 1.0 3.1 12 104
+ 0.55668 2 3 cbr 210 ------- 2 1.0 3.1 12 104
r 0.55704 0 2 tcp 1040 ------- 1 0.0 3.0 41 65
+ 0.55704 2 3 tcp 1040 ------- 1 0.0 3.0 41 65
r 0.55776 2 0 ack 40 ------- 1 3.0 0.0 36 100
+ 0.55776 0 2 tcp 1040 ------- 1 0.0 3.0 56 110
r 0.55912 3 2 ack 40 ------- 1 3.0 0.0 37 107
+ 0.55912 2 0 ack 40 ------- 1 3.0 0.0 37 107
- 0.55912 2 0 ack 40 ------- 1 3.0 0.0 37 107
+ 0.56 1 2 cbr 210 ------- 2 1.0 3.1 16 111
- 0.56 1 2 cbr 210 ------- 2 1.0 3.1 16 111
r 0.56043 1 2 cbr 210 ------- 2 1.0 3.1 13 106
+ 0.56043 2 3 cbr 210 ------- 2 1.0 3.1 13 106
r 0.56048 2 3 tcp 1040 ------- 1 0.0 3.0 38 59
+ 0.56048 3 2 ack 40 ------- 1 3.0 0.0 38 112
- 0.56048 3 2 ack 40 ------- 1 3.0 0.0 38 112
r 0.56216 2 3 cbr 210 ------- 2 1.0 3.1 6 94
- 0.56216 2 3 cbr 210 ------- 2 1.0 3.1 8 98
- 0.56368 0 2 tcp 1040 ------- 1 0.0 3.0 44 71
+ 0.56375 1 2 cbr 210 ------- 2 1.0 3.1 17 113
- 0.56375 1 2 cbr 210 ------- 2 1.0 3.1 17 113
r 0.56384 2 3 cbr 210 ------- 2 1.0 3.1 7 96
- 0.56384 2 3 cbr 210 ------- 2 1.0 3.1 9 99
r 0.56418 1 2 cbr 210 ------- 2 1.0 3.1 14 108
+ 0.56418 2 3 cbr 210 ------- 2 1.0 3.1 14 108
r 0.56536 0 2 tcp 1040 ------- 1 0.0 3.0 42 67
+ 0.56536 2 3 tcp 1040 ------- 1 0.0 3.0 42 67
- 0.56552 2 3 tcp 1040 ------- 1 0.0 3.0 40 63
+ 0.5675 1 2 cbr 210 ------- 2 1.0 3.1 18 114
- 0.5675 1 2 cbr 210 ------- 2 1.0 3.1 18 114
r 0.56793 1 2 cbr 210 ------- 2 1.0 3.1 15 109
+ 0.56793 2 3 cbr 210 ------- 2 1.0 3.1 15 109
r 0.56944 2 0 ack 40 ------- 1 3.0 0.0 37 107
+ 0.56944 0 2 tcp 1040 ------- 1 0.0 3.0 57 115
r 0.5708 3 2 ack 40 ------- 1 3.0 0.0 38 112
+ 0.5708 2 0 ack 40 ------- 1 3.0 0.0 38 112
- 0.5708 2 0 ack 40 ------- 1 3.0 0.0 38 112
+ 0.57125 1 2 cbr 210 ------- 2 1.0 3.1 19 116
- 0.57125 1 2 cbr 210 ------- 2 1.0 3.1 19 116
r 0.57168 1 2 cbr 210 ------- 2 1.0 3.1 16 111
+ 0.57168 2 3 cbr 210 ------- 2 1.0 3.1 16 111
- 0.572 0 2 tcp 1040 ------- 1 0.0 3.0 45 73
r 0.57216 2 3 tcp 1040 ------- 1 0.0 3.0 39 61
+ 0.57216 3 2 ack 40 ------- 1 3.0 0.0 39 117
- 0.57216 3 2 ack 40 ------- 1 3.0 0.0 39 117
r 0.57368 0 2 tcp 1040 ------- 1 0.0 3.0 43 69
+ 0.57368 2 3 tcp 1040 ------- 1 0.0 3.0 43 69
d 0.57368 2 3 tcp 1040 ------- 1 0.0 3.0 43 69
r 0.57384 2 3 cbr 210 ------- 2 1.0 3.1 8 98
- 0.57384 2 3 cbr 210 ------- 2 1.0 3.1 10 101
+ 0.575 1 2 cbr 210 ------- 2 1.0 3.1 20 118
- 0.575 1 2 cbr 210 ------- 2 1.0 3.1 20 118
r 0.57543 1 2 cbr 210 ------- 2 1.0 3.1 17 113
+ 0.57543 2 3 cbr 210 ------- 2 1.0 3.1 17 113
r 0.57552 2 3 cbr 210 ------- 2 1.0 3.1 9 99
- 0.57552 2 3 cbr 210 ------- 2 1.0 3.1 11 103
- 0.5772 2 3 cbr 210 ------- 2 1.0 3.1 12 104
+ 0.57875 1 2 cbr 210 ------- 2 1.0 3.1 21 119
- 0.57875 1 2 cbr 210 ------- 2 1.0 3.1 21 119
- 0.57888 2 3 tcp 1040 ------- 1 0.0 3.0 41 65
r 0.57918 1 2 cbr 210 ------- 2 1.0 3.1 18 114
+ 0.57918 2 3 cbr 210 ------- 2 1.0 3.1 18 114
- 0.58032 0 2 tcp 1040 ------- 1 0.0 3.0 46 75
r 0.58112 2 0 ack 40 ------- 1 3.0 0.0 38 112
+ 0.58112 0 2 tcp 1040 ------- 1 0.0 3.0 58 120
r 0.582 0 2 tcp 1040 ------- 1 0.0 3.0 44 71
+ 0.582 2 3 tcp 1040 ------- 1 0.0 3.0 44 71
r 0.58248 3 2 ack 40 ------- 1 3.0 0.0 39 117
+ 0.58248 2 0 ack 40 ------- 1 3.0 0.0 39 117
- 0.58248 2 0 ack 40 ------- 1 3.0 0.0 39 117
+ 0.5825 1 2 cbr 210 ------- 2 1.0 3.1 22 121
- 0.5825 1 2 cbr 210 ------- 2 1.0 3.1 22 121
r 0.58293 1 2 cbr 210 ------- 2 1.0 3.1 19 116
+ 0.58293 2 3 cbr 210 ------- 2 1.0 3.1 19 116
r 0.58384 2 3 tcp 1040 ------- 1 0.0 3.0 40 63
+ 0.58384 3 2 ack 40 ------- 1 3.0 0.0 40 122
- 0.58384 3 2 ack 40 ------- 1 3.0 0.0 40 122
r 0.58552 2 3 cbr 210 ------- 2 1.0 3.1 10 101
+ 0.58625 1 2 cbr 210 ------- 2 1.0 3.1 23 123
- 0.58625 1 2 cbr 210 ------- 2 1.0 3.1 23 123
r 0.58668 1 2 cbr 210 ------- 2 1.0 3.1 20 118
+ 0.58668 2 3 cbr 210 ------- 2 1.0 3.1 20 118
d 0.58668 2 3 cbr 210 ------- 2 1.0 3.1 20 118
r 0.5872 2 3 cbr 210 ------- 2 1.0 3.1 11 103
- 0.5872 2 3 cbr 210 ------- 2 1.0 3.1 13 106
- 0.58864 0 2 tcp 1040 ------- 1 0.0 3.0 47 77
r 0.58888 2 3 cbr 210 ------- 2 1.0 3.1 12 104
- 0.58888 2 3 cbr 210 ------- 2 1.0 3.1 14 108
+ 0.59 1 2 cbr 210 ------- 2 1.0 3.1 24 124
- 0.59 1 2 cbr 210 ------- 2 1.0 3.1 24 124
r 0.59032 0 2 tcp 1040 ------- 1 0.0 3.0 45 73
+ 0.59032 2 3 tcp 1040 ------- 1 0.0 3.0 45 73
r 0.59043 1 2 cbr 210 ------- 2 1.0 3.1 21 119
+ 0.59043 2 3 cbr 210 ------- 2 1.0 3.1 21 119
- 0.59056 2 3 tcp 1040 ------- 1 0.0 3.0 42 67
r 0.5928 2 0 ack 40 ------- 1 3.0 0.0 39 117
+ 0.5928 0 2 tcp 1040 ------- 1 0.0 3.0 59 125
+ 0.59375 1 2 cbr 210 ------- 2 1.0 3.1 25 126
- 0.59375 1 2 cbr 210 ------- 2 1.0 3.1 25 126
r 0.59416 3 2 ack 40 ------- 1 3.0 0.0 40 122
+ 0.59416 2 0 ack 40 ------- 1 3.0 0.0 40 122
- 0.59416 2 0 ack 40 ------- 1 3.0 0.0 40 122
r 0.59418 1 2 cbr 210 ------- 2 1.0 3.1 22 121
+ 0.59418 2 3 cbr 210 ------- 2 1.0 3.1 22 121
- 0.59696 0 2 tcp 1040 ------- 1 0.0 3.0 48 79